# vtk DataFile Version 2.0
Written badly by Kevin Korner
ASCII
DATASET POLYDATA
POINTS 350 FLOAT
0 0 0
0.00286533 0 0
0.005730268 1.579293e-05 4.459507e-05
0.00859404 4.805915e-05 0.0001333924
0.01145587 9.746245e-05 0.0002659725
0.01431501 0.0001646495 0.0004418897
0.01717069 0.0002502493 0.0006606733
0.02002218 0.000354873 0.0009218283
0.02286873 0.0004791132 0.001224836
0.02570963 0.0006235436 0.001569155
0.02854415 0.0007887189 0.001954223
0.03137161 0.0009751742 0.002379456
0.03419131 0.001183425 0.002844251
0.03700258 0.001413967 0.003347984
0.03980475 0.001667275 0.003890015
0.04259717 0.001943804 0.004469687
0.04537921 0.00224399 0.005086327
0.04815025 0.002568245 0.005739246
0.05090969 0.002916965 0.006427742
0.05365693 0.003290521 0.007151098
0.0563914 0.003689267 0.007908588
0.05911254 0.004113534 0.008699473
0.06181981 0.004563633 0.009523004
0.06451269 0.005039857 0.01037842
0.06719066 0.005542476 0.01126496
0.06985323 0.00607174 0.01218186
0.07249994 0.006627882 0.01312831
0.07513031 0.007211113 0.01410356
0.07774391 0.007821625 0.0151068
0.08034031 0.00845959 0.01613724
0.08291911 0.009125164 0.01719408
0.08547991 0.009818482 0.01827654
0.08802235 0.01053966 0.0193838
0.09054606 0.0112888 0.02051508
0.09305071 0.01206599 0.02166957
0.09553597 0.01287128 0.02284647
0.09800153 0.01370473 0.02404499
0.1004471 0.01456636 0.02526434
0.1028724 0.0154562 0.02650373
0.1052773 0.01637425 0.02776236
0.1076613 0.01732049 0.02903947
0.1100244 0.01829488 0.03033428
0.1123663 0.0192974 0.03164601
0.1146868 0.02032797 0.03297391
0.1169857 0.02138653 0.03431721
0.1192629 0.022473 0.03567517
0.1215182 0.02358728 0.03704704
0.1237515 0.02472927 0.0384321
0.1259627 0.02589883 0.03982961
0.1281516 0.02709585 0.04123887
0.1303181 0.02832018 0.04265916
0.1324622 0.02957167 0.04408978
0.1345838 0.03085016 0.04553006
0.1366829 0.03215549 0.04697931
0.1387593 0.03348746 0.04843687
0.140813 0.03484591 0.04990209
0.1428441 0.03623062 0.0513743
0.1448525 0.0376414 0.0528529
0.1468381 0.03907805 0.05433724
0.1488011 0.04054033 0.05582671
0.1507414 0.04202805 0.05732073
0.152659 0.04354095 0.0588187
0.154554 0.04507882 0.06032004
0.1564265 0.04664142 0.06182418
0.1582764 0.0482285 0.06333058
0.1601038 0.04983981 0.06483868
0.1619087 0.05147511 0.06634797
0.1636914 0.05313414 0.06785792
0.1654517 0.05481664 0.06936802
0.1671899 0.05652235 0.07087777
0.168906 0.05825102 0.0723867
0.1706001 0.06000237 0.07389433
0.1722723 0.06177614 0.07540019
0.1739227 0.06357206 0.07690384
0.1755514 0.06538985 0.07840484
0.1771586 0.06722926 0.07990275
0.1787443 0.06909 0.08139716
0.1803087 0.07097181 0.08288766
0.1818519 0.07287441 0.08437385
0.183374 0.07479752 0.08585535
0.1848752 0.07674089 0.08733178
0.1863556 0.07870422 0.08880278
0.1878154 0.08068725 0.09026797
0.1892546 0.08268972 0.09172703
0.1906735 0.08471134 0.0931796
0.1920721 0.08675185 0.09462537
0.1934507 0.08881098 0.096064
0.1948093 0.09088846 0.09749519
0.1961482 0.09298403 0.09891864
0.1974674 0.09509743 0.100334
0.1987671 0.09722839 0.1017411
0.2000475 0.09937665 0.1031396
0.2013087 0.101542 0.1045292
0.2025508 0.103724 0.1059096
0.2037741 0.1059227 0.1072807
0.2049786 0.1081376 0.1086421
0.2061646 0.1103685 0.1099935
0.2073321 0.1126152 0.1113349
0.2084814 0.1148775 0.1126659
0.2096125 0.1171551 0.1139863
0.2107255 0.1194477 0.1152958
0.2118208 0.1217552 0.1165944
0.2128983 0.1240772 0.1178817
0.2139583 0.1264136 0.1191576
0.2150009 0.1287641 0.1204218
0.2160261 0.1311285 0.1216741
0.2170343 0.1335067 0.1229144
0.2180254 0.1358982 0.1241425
0.2189996 0.138303 0.1253582
0.2199571 0.1407209 0.1265613
0.2208979 0.1431515 0.1277516
0.2218223 0.1455948 0.128929
0.2227303 0.1480504 0.1300933
0.223622 0.1505183 0.1312442
0.2244976 0.1529981 0.1323817
0.2253572 0.1554897 0.1335056
0.2262009 0.1579929 0.1346156
0.2270288 0.1605075 0.1357117
0.227841 0.1630333 0.1367937
0.2286377 0.1655701 0.1378615
0.2294189 0.1681178 0.1389147
0.2301846 0.1706761 0.1399534
0.2309352 0.1732448 0.1409773
0.2316705 0.1758238 0.1419863
0.2323907 0.1784129 0.1429803
0.233096 0.1810119 0.143959
0.2337863 0.1836207 0.1449223
0.2344618 0.186239 0.1458701
0.2351225 0.1888667 0.1468022
0.2357685 0.1915036 0.1477184
0.2364 0.1941495 0.1486186
0.2370168 0.1968044 0.1495026
0.2376193 0.1994679 0.1503703
0.2382072 0.2021399 0.1512215
0.2387809 0.2048203 0.152056
0.2393402 0.207509 0.1528737
0.2398853 0.2102056 0.1536744
0.2404162 0.2129101 0.1544579
0.240933 0.2156223 0.1552241
0.2414356 0.218342 0.1559727
0.2419242 0.2210691 0.1567037
0.2423988 0.2238034 0.1574169
0.2428593 0.2265447 0.158112
0.243306 0.2292929 0.1587889
0.2437386 0.2320478 0.1594474
0.2441574 0.2348091 0.1600874
0.2445623 0.2375769 0.1607086
0.2449533 0.2403508 0.1613109
0.2453305 0.2431307 0.161894
0.2456938 0.2459164 0.1624578
0.2460433 0.2487077 0.1630022
0.2463789 0.2515046 0.1635268
0.2467008 0.2543066 0.1640316
0.2470088 0.2571138 0.1645163
0.2473029 0.2599259 0.1649807
0.2475833 0.2627428 0.1654246
0.2478498 0.2655641 0.1658479
0.2481024 0.2683897 0.1662503
0.2483412 0.2712195 0.1666317
0.2485661 0.2740532 0.1669919
0.2487771 0.2768906 0.1673307
0.2489742 0.2797315 0.1676478
0.2491573 0.2825757 0.1679432
0.2493265 0.2854229 0.1682167
0.2494817 0.288273 0.168468
0.2496229 0.2911256 0.168697
0.24975 0.2939807 0.1689037
0.2498631 0.2968379 0.1690877
0.2499621 0.2996969 0.169249
0.250047 0.3025576 0.1693876
0.2501178 0.3054198 0.1695032
0.2501744 0.308283 0.1695958
0.2502169 0.3111472 0.1696653
0.2502453 0.314012 0.1697117
0.2502594 0.3168772 0.1697349
0.2502594 0.3197426 0.1697349
0.2502453 0.3226078 0.1697117
0.2502169 0.3254726 0.1696653
0.2501744 0.3283367 0.1695958
0.2501178 0.3312 0.1695032
0.250047 0.3340621 0.1693876
0.2499621 0.3369228 0.169249
0.2498631 0.3397819 0.1690877
0.24975 0.3426391 0.1689037
0.2496229 0.3454941 0.168697
0.2494817 0.3483468 0.168468
0.2493265 0.3511969 0.1682167
0.2491573 0.3540441 0.1679432
0.2489742 0.3568883 0.1676478
0.2487771 0.3597292 0.1673307
0.2485661 0.3625666 0.1669919
0.2483412 0.3654003 0.1666317
0.2481024 0.36823 0.1662503
0.2478498 0.3710557 0.1658479
0.2475833 0.373877 0.1654246
0.2473029 0.3766938 0.1649807
0.2470088 0.3795059 0.1645163
0.2467008 0.3823131 0.1640316
0.2463789 0.3851152 0.1635268
0.2460433 0.387912 0.1630022
0.2456938 0.3907034 0.1624578
0.2453305 0.3934891 0.161894
0.2449533 0.396269 0.1613109
0.2445623 0.3990429 0.1607086
0.2441574 0.4018106 0.1600874
0.2437386 0.404572 0.1594474
0.243306 0.4073269 0.1587889
0.2428593 0.410075 0.158112
0.2423988 0.4128163 0.1574169
0.2419242 0.4155506 0.1567037
0.2414356 0.4182777 0.1559727
0.240933 0.4209975 0.1552241
0.2404162 0.4237097 0.1544579
0.2398853 0.4264142 0.1536744
0.2393402 0.4291108 0.1528737
0.2387809 0.4317994 0.152056
0.2382072 0.4344798 0.1512215
0.2376193 0.4371519 0.1503703
0.2370168 0.4398154 0.1495026
0.2364 0.4424702 0.1486186
0.2357685 0.4451162 0.1477184
0.2351225 0.4477531 0.1468022
0.2344618 0.4503808 0.1458701
0.2337863 0.4529991 0.1449223
0.233096 0.4556079 0.143959
0.2323907 0.4582069 0.1429803
0.2316705 0.460796 0.1419863
0.2309352 0.463375 0.1409773
0.2301846 0.4659437 0.1399534
0.2294189 0.468502 0.1389147
0.2286377 0.4710496 0.1378615
0.227841 0.4735865 0.1367937
0.2270288 0.4761123 0.1357117
0.2262009 0.4786269 0.1346156
0.2253572 0.4811301 0.1335056
0.2244976 0.4836217 0.1323817
0.223622 0.4861015 0.1312442
0.2227303 0.4885694 0.1300933
0.2218223 0.491025 0.128929
0.2208979 0.4934683 0.1277516
0.2199571 0.4958989 0.1265613
0.2189996 0.4983167 0.1253582
0.2180254 0.5007215 0.1241425
0.2170343 0.5031131 0.1229144
0.2160261 0.5054912 0.1216741
0.2150009 0.5078557 0.1204218
0.2139583 0.5102062 0.1191576
0.2128983 0.5125426 0.1178817
0.2118208 0.5148646 0.1165944
0.2107255 0.5171721 0.1152958
0.2096125 0.5194647 0.1139863
0.2084814 0.5217423 0.1126659
0.2073321 0.5240045 0.1113349
0.2061646 0.5262513 0.1099935
0.2049786 0.5284822 0.1086421
0.2037741 0.5306971 0.1072807
0.2025508 0.5328957 0.1059096
0.2013087 0.5350778 0.1045292
0.2000475 0.5372431 0.1031396
0.1987671 0.5393914 0.1017411
0.1974674 0.5415223 0.100334
0.1961482 0.5436357 0.09891864
0.1948093 0.5457313 0.09749519
0.1934507 0.5478088 0.096064
0.1920721 0.5498679 0.09462537
0.1906735 0.5519084 0.0931796
0.1892546 0.5539301 0.09172703
0.1878154 0.5559325 0.09026797
0.1863556 0.5579156 0.08880278
0.1848752 0.5598789 0.08733178
0.183374 0.5618222 0.08585535
0.1818519 0.5637454 0.08437385
0.1803087 0.565648 0.08288766
0.1787443 0.5675298 0.08139716
0.1771586 0.5693905 0.07990275
0.1755514 0.5712299 0.07840484
0.1739227 0.5730477 0.07690384
0.1722723 0.5748436 0.07540019
0.1706001 0.5766174 0.07389433
0.168906 0.5783688 0.0723867
0.1671899 0.5800974 0.07087777
0.1654517 0.5818031 0.06936802
0.1636914 0.5834856 0.06785792
0.1619087 0.5851447 0.06634797
0.1601038 0.58678 0.06483868
0.1582764 0.5883913 0.06333058
0.1564265 0.5899784 0.06182418
0.154554 0.5915409 0.06032004
0.152659 0.5930788 0.0588187
0.1507414 0.5945917 0.05732073
0.1488011 0.5960794 0.05582671
0.1468381 0.5975417 0.05433724
0.1448525 0.5989784 0.0528529
0.1428441 0.6003892 0.0513743
0.140813 0.6017739 0.04990209
0.1387593 0.6031323 0.04843687
0.1366829 0.6044643 0.04697931
0.1345838 0.6057696 0.04553006
0.1324622 0.6070481 0.04408978
0.1303181 0.6082996 0.04265916
0.1281516 0.6095239 0.04123887
0.1259627 0.6107209 0.03982961
0.1237515 0.6118905 0.0384321
0.1215182 0.6130325 0.03704704
0.1192629 0.6141468 0.03567517
0.1169857 0.6152332 0.03431721
0.1146868 0.6162918 0.03297391
0.1123663 0.6173224 0.03164601
0.1100244 0.6183249 0.03033428
0.1076613 0.6192993 0.02903947
0.1052773 0.6202455 0.02776236
0.1028724 0.6211636 0.02650373
0.1004471 0.6220534 0.02526434
0.09800153 0.622915 0.02404499
0.09553597 0.6237485 0.02284647
0.09305071 0.6245538 0.02166957
0.09054606 0.625331 0.02051508
0.08802235 0.6260801 0.0193838
0.08547991 0.6268013 0.01827654
0.08291911 0.6274946 0.01719408
0.08034031 0.6281602 0.01613724
0.07774391 0.6287981 0.0151068
0.07513031 0.6294087 0.01410356
0.07249994 0.6299919 0.01312831
0.06985323 0.630548 0.01218186
0.06719066 0.6310773 0.01126496
0.06451269 0.6315799 0.01037842
0.06181981 0.6320561 0.009523004
0.05911254 0.6325062 0.008699473
0.0563914 0.6329305 0.007908588
0.05365693 0.6333293 0.007151098
0.05090969 0.6337028 0.006427742
0.04815025 0.6340515 0.005739246
0.04537921 0.6343758 0.005086327
0.04259717 0.634676 0.004469687
0.03980475 0.6349525 0.003890015
0.03700258 0.6352058 0.003347984
0.03419131 0.6354363 0.002844251
0.03137161 0.6356446 0.002379456
0.02854415 0.6358311 0.001954223
0.02570963 0.6359962 0.001569155
0.02286873 0.6361407 0.001224836
0.02002218 0.6362649 0.0009218283
0.01717069 0.6363695 0.0006606733
0.01431501 0.6364551 0.0004418897
0.01145587 0.6365223 0.0002659725
0.00859404 0.6365717 0.0001333924
0.005730268 0.636604 4.459508e-05
0.00286533 0.6366198 0
0 0.6366198 0

LINES 349 1047
2 0 1
2 1 2
2 2 3
2 3 4
2 4 5
2 5 6
2 6 7
2 7 8
2 8 9
2 9 10
2 10 11
2 11 12
2 12 13
2 13 14
2 14 15
2 15 16
2 16 17
2 17 18
2 18 19
2 19 20
2 20 21
2 21 22
2 22 23
2 23 24
2 24 25
2 25 26
2 26 27
2 27 28
2 28 29
2 29 30
2 30 31
2 31 32
2 32 33
2 33 34
2 34 35
2 35 36
2 36 37
2 37 38
2 38 39
2 39 40
2 40 41
2 41 42
2 42 43
2 43 44
2 44 45
2 45 46
2 46 47
2 47 48
2 48 49
2 49 50
2 50 51
2 51 52
2 52 53
2 53 54
2 54 55
2 55 56
2 56 57
2 57 58
2 58 59
2 59 60
2 60 61
2 61 62
2 62 63
2 63 64
2 64 65
2 65 66
2 66 67
2 67 68
2 68 69
2 69 70
2 70 71
2 71 72
2 72 73
2 73 74
2 74 75
2 75 76
2 76 77
2 77 78
2 78 79
2 79 80
2 80 81
2 81 82
2 82 83
2 83 84
2 84 85
2 85 86
2 86 87
2 87 88
2 88 89
2 89 90
2 90 91
2 91 92
2 92 93
2 93 94
2 94 95
2 95 96
2 96 97
2 97 98
2 98 99
2 99 100
2 100 101
2 101 102
2 102 103
2 103 104
2 104 105
2 105 106
2 106 107
2 107 108
2 108 109
2 109 110
2 110 111
2 111 112
2 112 113
2 113 114
2 114 115
2 115 116
2 116 117
2 117 118
2 118 119
2 119 120
2 120 121
2 121 122
2 122 123
2 123 124
2 124 125
2 125 126
2 126 127
2 127 128
2 128 129
2 129 130
2 130 131
2 131 132
2 132 133
2 133 134
2 134 135
2 135 136
2 136 137
2 137 138
2 138 139
2 139 140
2 140 141
2 141 142
2 142 143
2 143 144
2 144 145
2 145 146
2 146 147
2 147 148
2 148 149
2 149 150
2 150 151
2 151 152
2 152 153
2 153 154
2 154 155
2 155 156
2 156 157
2 157 158
2 158 159
2 159 160
2 160 161
2 161 162
2 162 163
2 163 164
2 164 165
2 165 166
2 166 167
2 167 168
2 168 169
2 169 170
2 170 171
2 171 172
2 172 173
2 173 174
2 174 175
2 175 176
2 176 177
2 177 178
2 178 179
2 179 180
2 180 181
2 181 182
2 182 183
2 183 184
2 184 185
2 185 186
2 186 187
2 187 188
2 188 189
2 189 190
2 190 191
2 191 192
2 192 193
2 193 194
2 194 195
2 195 196
2 196 197
2 197 198
2 198 199
2 199 200
2 200 201
2 201 202
2 202 203
2 203 204
2 204 205
2 205 206
2 206 207
2 207 208
2 208 209
2 209 210
2 210 211
2 211 212
2 212 213
2 213 214
2 214 215
2 215 216
2 216 217
2 217 218
2 218 219
2 219 220
2 220 221
2 221 222
2 222 223
2 223 224
2 224 225
2 225 226
2 226 227
2 227 228
2 228 229
2 229 230
2 230 231
2 231 232
2 232 233
2 233 234
2 234 235
2 235 236
2 236 237
2 237 238
2 238 239
2 239 240
2 240 241
2 241 242
2 242 243
2 243 244
2 244 245
2 245 246
2 246 247
2 247 248
2 248 249
2 249 250
2 250 251
2 251 252
2 252 253
2 253 254
2 254 255
2 255 256
2 256 257
2 257 258
2 258 259
2 259 260
2 260 261
2 261 262
2 262 263
2 263 264
2 264 265
2 265 266
2 266 267
2 267 268
2 268 269
2 269 270
2 270 271
2 271 272
2 272 273
2 273 274
2 274 275
2 275 276
2 276 277
2 277 278
2 278 279
2 279 280
2 280 281
2 281 282
2 282 283
2 283 284
2 284 285
2 285 286
2 286 287
2 287 288
2 288 289
2 289 290
2 290 291
2 291 292
2 292 293
2 293 294
2 294 295
2 295 296
2 296 297
2 297 298
2 298 299
2 299 300
2 300 301
2 301 302
2 302 303
2 303 304
2 304 305
2 305 306
2 306 307
2 307 308
2 308 309
2 309 310
2 310 311
2 311 312
2 312 313
2 313 314
2 314 315
2 315 316
2 316 317
2 317 318
2 318 319
2 319 320
2 320 321
2 321 322
2 322 323
2 323 324
2 324 325
2 325 326
2 326 327
2 327 328
2 328 329
2 329 330
2 330 331
2 331 332
2 332 333
2 333 334
2 334 335
2 335 336
2 336 337
2 337 338
2 338 339
2 339 340
2 340 341
2 341 342
2 342 343
2 343 344
2 344 345
2 345 346
2 346 347
2 347 348
2 348 349


POINT_DATA 350
SCALARS a FLOAT 1
LOOKUP_TABLE default
0.0005894628
0.0005894628
0.0005894628
0.0005894628
0.0005894628
0.0005894628
0.0005894628
0.0005894628
0.0005894628
0.0005894628
0.0005894628
0.0005894628
0.0005894628
0.0005894628
0.0005894628
0.0005894628
0.0005894628
0.0005894628
0.0005894628
0.0005894628
0.0005894628
0.0005894628
0.0005894628
0.0005894628
0.0005894628
0.0005894628
0.0005894628
0.0005894628
0.0005894628
0.0005894628
0.0005894628
0.0005894628
0.0005894628
0.0005894628
0.0005894628
0.0005894628
0.0005894628
0.0005894628
0.0005894628
0.0005894628
0.0005894628
0.0005894628
0.0005894628
0.0005894628
0.0005894628
0.0005894628
0.0005894628
0.0005894628
0.0005894628
0.0005894628
0.0005894628
0.0005894628
0.0005894628
0.0005894628
0.0005894628
0.0005894628
0.0005894628
0.0005894628
0.0005894628
0.0005894628
0.0005894628
0.0005894628
0.0005894628
0.0005894628
0.0005894628
0.0005894628
0.0005894628
0.0005894628
0.0005894628
0.0005894628
0.0005894628
0.0005894628
0.0005894628
0.0005894628
0.0005894628
0.0005894628
0.0005894628
0.0005894628
0.0005894628
0.0005894628
0.0005894628
0.0005894628
0.0005894628
0.0005894628
0.0005894628
0.0005894628
0.0005894628
0.0005894628
0.0005894628
0.0005894628
0.0005894628
0.0005894628
0.0005894628
0.0005894628
0.0005894628
0.0005894628
0.0005894628
0.0005894628
0.0005894628
0.0005894628
0.0005894628
0.0005894628
0.0005894628
0.0005894628
0.0005894628
0.0005894628
0.0005894628
0.0005894628
0.0005894628
0.0005894628
0.0005894628
0.0005894628
0.0005894628
0.0005894628
0.0005894628
0.0005894628
0.0005894628
0.0005894628
0.0005894628
0.0005894628
0.0005894628
0.0005894628
0.0005894628
0.0005894628
0.0005894628
0.0005894628
0.0005894628
0.0005894628
0.0005894628
0.0005894628
0.0005894628
0.0005894628
0.0005894628
0.0005894628
0.0005894628
0.0005894628
0.0005894628
0.0005894628
0.0005894628
0.0005894628
0.0005894628
0.0005894628
0.0005894628
0.0005894628
0.0005894628
0.0005894628
0.0005894628
0.0005894628
0.0005894628
0.0005894628
0.0005894628
0.0005894628
0.0005894628
0.0005894628
0.0005894628
0.0005894628
0.0005894628
0.0005894628
0.0005894628
0.0005894628
0.0005894628
0.0005894628
0.0005894628
0.0005894628
0.0005894628
0.0005894628
0.0005894628
0.0005894628
0.0005894628
0.0005894628
0.0005894628
0.0005894628
0.0005894628
0.0005894628
0.0005894628
0.0005894628
0.0005894628
0.0005894628
0.0005894628
0.0005894628
0.0005894628
0.0005894628
0.0005894628
0.0005894628
0.0005894628
0.0005894628
0.0005894628
0.0005894628
0.0005894628
0.0005894628
0.0005894628
0.0005894628
0.0005894628
0.0005894628
0.0005894628
0.0005894628
0.0005894628
0.0005894628
0.0005894628
0.0005894628
0.0005894628
0.0005894628
0.0005894628
0.0005894628
0.0005894628
0.0005894628
0.0005894628
0.0005894628
0.0005894628
0.0005894628
0.0005894628
0.0005894628
0.0005894628
0.0005894628
0.0005894628
0.0005894628
0.0005894628
0.0005894628
0.0005894628
0.0005894628
0.0005894628
0.0005894628
0.0005894628
0.0005894628
0.0005894628
0.0005894628
0.0005894628
0.0005894628
0.0005894628
0.0005894628
0.0005894628
0.0005894628
0.0005894628
0.0005894628
0.0005894628
0.0005894628
0.0005894628
0.0005894628
0.0005894628
0.0005894628
0.0005894628
0.0005894628
0.0005894628
0.0005894628
0.0005894628
0.0005894628
0.0005894628
0.0005894628
0.0005894628
0.0005894628
0.0005894628
0.0005894628
0.0005894628
0.0005894628
0.0005894628
0.0005894628
0.0005894628
0.0005894628
0.0005894628
0.0005894628
0.0005894628
0.0005894628
0.0005894628
0.0005894628
0.0005894628
0.0005894628
0.0005894628
0.0005894628
0.0005894628
0.0005894628
0.0005894628
0.0005894628
0.0005894628
0.0005894628
0.0005894628
0.0005894628
0.0005894628
0.0005894628
0.0005894628
0.0005894628
0.0005894628
0.0005894628
0.0005894628
0.0005894628
0.0005894628
0.0005894628
0.0005894628
0.0005894628
0.0005894628
0.0005894628
0.0005894628
0.0005894628
0.0005894628
0.0005894628
0.0005894628
0.0005894628
0.0005894628
0.0005894628
0.0005894628
0.0005894628
0.0005894628
0.0005894628
0.0005894628
0.0005894628
0.0005894628
0.0005894628
0.0005894628
0.0005894628
0.0005894628
0.0005894628
0.0005894628
0.0005894628
0.0005894628
0.0005894628
0.0005894628
0.0005894628
0.0005894628
0.0005894628
0.0005894628
0.0005894628
0.0005894628
0.0005894628
0.0005894628
0.0005894628
0.0005894628
0.0005894628
0.0005894628
0.0005894628
0.0005894628
0.0005894628
0.0005894628
0.0005894628
0.0005894628
0.0005894628
0.0005894628
0.0005894628
0.0005894628
0.0005894628
0.0005894628
0.0005894628
0.0005894628
0.0005894628
0.0005894628
0.0005894628
0.0005894628
0.0005894628
0.0005894628
0.0005894628
0.0005894628
0.0005894628


SCALARS b FLOAT 1
LOOKUP_TABLE default
0.04420971
0.04420971
0.04420971
0.04420971
0.04420971
0.04420971
0.04420971
0.04420971
0.04420971
0.04420971
0.04420971
0.04420971
0.04420971
0.04420971
0.04420971
0.04420971
0.04420971
0.04420971
0.04420971
0.04420971
0.04420971
0.04420971
0.04420971
0.04420971
0.04420971
0.04420971
0.04420971
0.04420971
0.04420971
0.04420971
0.04420971
0.04420971
0.04420971
0.04420971
0.04420971
0.04420971
0.04420971
0.04420971
0.04420971
0.04420971
0.04420971
0.04420971
0.04420971
0.04420971
0.04420971
0.04420971
0.04420971
0.04420971
0.04420971
0.04420971
0.04420971
0.04420971
0.04420971
0.04420971
0.04420971
0.04420971
0.04420971
0.04420971
0.04420971
0.04420971
0.04420971
0.04420971
0.04420971
0.04420971
0.04420971
0.04420971
0.04420971
0.04420971
0.04420971
0.04420971
0.04420971
0.04420971
0.04420971
0.04420971
0.04420971
0.04420971
0.04420971
0.04420971
0.04420971
0.04420971
0.04420971
0.04420971
0.04420971
0.04420971
0.04420971
0.04420971
0.04420971
0.04420971
0.04420971
0.04420971
0.04420971
0.04420971
0.04420971
0.04420971
0.04420971
0.04420971
0.04420971
0.04420971
0.04420971
0.04420971
0.04420971
0.04420971
0.04420971
0.04420971
0.04420971
0.04420971
0.04420971
0.04420971
0.04420971
0.04420971
0.04420971
0.04420971
0.04420971
0.04420971
0.04420971
0.04420971
0.04420971
0.04420971
0.04420971
0.04420971
0.04420971
0.04420971
0.04420971
0.04420971
0.04420971
0.04420971
0.04420971
0.04420971
0.04420971
0.04420971
0.04420971
0.04420971
0.04420971
0.04420971
0.04420971
0.04420971
0.04420971
0.04420971
0.04420971
0.04420971
0.04420971
0.04420971
0.04420971
0.04420971
0.04420971
0.04420971
0.04420971
0.04420971
0.04420971
0.04420971
0.04420971
0.04420971
0.04420971
0.04420971
0.04420971
0.04420971
0.04420971
0.04420971
0.04420971
0.04420971
0.04420971
0.04420971
0.04420971
0.04420971
0.04420971
0.04420971
0.04420971
0.04420971
0.04420971
0.04420971
0.04420971
0.04420971
0.04420971
0.04420971
0.04420971
0.04420971
0.04420971
0.04420971
0.04420971
0.04420971
0.04420971
0.04420971
0.04420971
0.04420971
0.04420971
0.04420971
0.04420971
0.04420971
0.04420971
0.04420971
0.04420971
0.04420971
0.04420971
0.04420971
0.04420971
0.04420971
0.04420971
0.04420971
0.04420971
0.04420971
0.04420971
0.04420971
0.04420971
0.04420971
0.04420971
0.04420971
0.04420971
0.04420971
0.04420971
0.04420971
0.04420971
0.04420971
0.04420971
0.04420971
0.04420971
0.04420971
0.04420971
0.04420971
0.04420971
0.04420971
0.04420971
0.04420971
0.04420971
0.04420971
0.04420971
0.04420971
0.04420971
0.04420971
0.04420971
0.04420971
0.04420971
0.04420971
0.04420971
0.04420971
0.04420971
0.04420971
0.04420971
0.04420971
0.04420971
0.04420971
0.04420971
0.04420971
0.04420971
0.04420971
0.04420971
0.04420971
0.04420971
0.04420971
0.04420971
0.04420971
0.04420971
0.04420971
0.04420971
0.04420971
0.04420971
0.04420971
0.04420971
0.04420971
0.04420971
0.04420971
0.04420971
0.04420971
0.04420971
0.04420971
0.04420971
0.04420971
0.04420971
0.04420971
0.04420971
0.04420971
0.04420971
0.04420971
0.04420971
0.04420971
0.04420971
0.04420971
0.04420971
0.04420971
0.04420971
0.04420971
0.04420971
0.04420971
0.04420971
0.04420971
0.04420971
0.04420971
0.04420971
0.04420971
0.04420971
0.04420971
0.04420971
0.04420971
0.04420971
0.04420971
0.04420971
0.04420971
0.04420971
0.04420971
0.04420971
0.04420971
0.04420971
0.04420971
0.04420971
0.04420971
0.04420971
0.04420971
0.04420971
0.04420971
0.04420971
0.04420971
0.04420971
0.04420971
0.04420971
0.04420971
0.04420971
0.04420971
0.04420971
0.04420971
0.04420971
0.04420971
0.04420971
0.04420971
0.04420971
0.04420971
0.04420971
0.04420971
0.04420971
0.04420971
0.04420971
0.04420971
0.04420971
0.04420971
0.04420971
0.04420971
0.04420971
0.04420971
0.04420971
0.04420971
0.04420971
0.04420971
0.04420971
0.04420971
0.04420971
0.04420971
0.04420971
0.04420971
0.04420971
0.04420971
0.04420971
0.04420971


VECTORS d1 FLOAT
0 0.3259972 0.9453707
-0.01651028 0.3414 0.9397731
-0.03296843 0.3565787 0.9336834
-0.04936373 0.3715249 0.9271097
-0.06568566 0.3862304 0.9200606
-0.08192392 0.4006876 0.9125447
-0.09806842 0.4148892 0.9045715
-0.1141093 0.4288281 0.8961504
-0.130037 0.4424976 0.8872915
-0.1458421 0.4558917 0.878005
-0.1615156 0.4690045 0.8683015
-0.1770487 0.4818304 0.8581919
-0.1924328 0.4943644 0.8476871
-0.2076597 0.5066018 0.8367987
-0.2227216 0.5185384 0.8255381
-0.2376107 0.5301701 0.813917
-0.2523199 0.5414935 0.8019473
-0.2668422 0.5525054 0.7896411
-0.2811709 0.563203 0.7770105
-0.2952996 0.573584 0.7640678
-0.3092224 0.5836462 0.7508252
-0.3229337 0.5933881 0.7372953
-0.3364281 0.6028083 0.7234903
-0.3497005 0.6119059 0.7094228
-0.3627464 0.6206801 0.6951052
-0.3755613 0.6291308 0.6805499
-0.3881413 0.637258 0.6657692
-0.4004826 0.6450619 0.6507755
-0.412582 0.6525434 0.635581
-0.4244363 0.6597033 0.6201979
-0.4360428 0.6665428 0.6046382
-0.447399 0.6730636 0.5889138
-0.4585029 0.6792674 0.5730366
-0.4693526 0.6851562 0.5570181
-0.4799465 0.6907323 0.5408699
-0.4902835 0.6959983 0.5246032
-0.5003624 0.7009569 0.5082291
-0.5101827 0.7056111 0.4917587
-0.5197438 0.7099639 0.4752026
-0.5290456 0.7140189 0.4585714
-0.5380882 0.7177795 0.4418753
-0.5468717 0.7212493 0.4251244
-0.5553968 0.7244324 0.4083285
-0.5636641 0.7273326 0.3914973
-0.5716747 0.729954 0.37464
-0.5794297 0.732301 0.3577658
-0.5869305 0.734378 0.3408836
-0.5941786 0.7361893 0.3240018
-0.6011757 0.7377395 0.3071289
-0.6079238 0.7390333 0.2902729
-0.6144249 0.7400755 0.2734417
-0.6206812 0.7408707 0.2566426
-0.6266951 0.7414239 0.2398832
-0.632469 0.7417398 0.2231702
-0.6380057 0.7418235 0.2065106
-0.6433077 0.7416799 0.1899108
-0.6483781 0.7413138 0.1733771
-0.6532197 0.7407304 0.1569153
-0.6578357 0.7399346 0.1405313
-0.6622291 0.7389313 0.1242304
-0.6664031 0.7377255 0.108018
-0.6703612 0.7363223 0.09189887
-0.6741066 0.7347264 0.07587786
-0.6776427 0.7329428 0.05995943
-0.6809731 0.7309764 0.04414781
-0.6841013 0.728832 0.02844702
-0.6870309 0.7265144 0.01286084
-0.6897654 0.7240282 -0.002607149
-0.6923086 0.7213782 -0.01795361
-0.694664 0.718569 -0.0331754
-0.6968353 0.715605 -0.04826958
-0.6988263 0.7124909 -0.06323345
-0.7006407 0.709231 -0.07806445
-0.7022821 0.7058296 -0.09276026
-0.7037543 0.702291 -0.1073187
-0.705061 0.6986193 -0.1217378
-0.7062058 0.6948187 -0.1360158
-0.7071926 0.6908931 -0.150151
-0.7080249 0.6868465 -0.164142
-0.7087064 0.6826827 -0.1779875
-0.7092408 0.6784054 -0.1916862
-0.7096316 0.6740183 -0.2052372
-0.7098825 0.6695248 -0.2186397
-0.7099971 0.6649285 -0.2318927
-0.7099787 0.6602327 -0.2449958
-0.709831 0.6554407 -0.2579485
-0.7095575 0.6505555 -0.2707504
-0.7091614 0.6455803 -0.2834012
-0.7086463 0.6405179 -0.2959007
-0.7080154 0.6353714 -0.308249
-0.7072721 0.6301433 -0.3204461
-0.7064196 0.6248363 -0.332492
-0.7054612 0.619453 -0.3443871
-0.7044 0.6139959 -0.3561315
-0.7032392 0.6084672 -0.3677258
-0.7019819 0.6028692 -0.3791703
-0.700631 0.5972041 -0.3904656
-0.6991897 0.5914739 -0.4016122
-0.6976609 0.5856805 -0.4126108
-0.6960474 0.5798259 -0.423462
-0.6943521 0.5739116 -0.4341665
-0.6925779 0.5679395 -0.4447252
-0.6907276 0.5619111 -0.4551388
-0.6888038 0.5558278 -0.4654082
-0.6868093 0.549691 -0.4755343
-0.6847467 0.543502 -0.4855179
-0.6826186 0.537262 -0.4953599
-0.6804276 0.530972 -0.5050613
-0.6781763 0.5246332 -0.5146231
-0.675867 0.5182465 -0.5240461
-0.6735024 0.5118126 -0.5333314
-0.6710847 0.5053324 -0.5424799
-0.6686165 0.4988066 -0.5514925
-0.6660999 0.4922357 -0.5603703
-0.6635375 0.4856203 -0.5691141
-0.6609314 0.4789609 -0.5777249
-0.658284 0.4722578 -0.5862037
-0.6555975 0.4655113 -0.5945512
-0.6528742 0.4587217 -0.6027684
-0.6501162 0.4518891 -0.6108561
-0.6473258 0.4450137 -0.6188151
-0.6445051 0.4380955 -0.6266463
-0.6416563 0.4311344 -0.6343503
-0.6387816 0.4241304 -0.6419279
-0.6358832 0.4170833 -0.6493798
-0.6329631 0.409993 -0.6567065
-0.6300237 0.4028591 -0.6639087
-0.6270669 0.3956814 -0.6709868
-0.6240951 0.3884595 -0.6779414
-0.6211104 0.3811931 -0.6847728
-0.6181149 0.3738815 -0.6914814
-0.6151111 0.3665244 -0.6980675
-0.612101 0.3591212 -0.7045313
-0.6090869 0.3516713 -0.710873
-0.6060713 0.3441741 -0.7170925
-0.6030565 0.336629 -0.72319
-0.6000448 0.3290352 -0.7291653
-0.5970387 0.3213921 -0.7350183
-0.5940408 0.3136989 -0.7407487
-0.5910536 0.3059548 -0.746356
-0.5880798 0.2981591 -0.75184
-0.5851221 0.290311 -0.7571999
-0.5821833 0.2824097 -0.7624352
-0.5792664 0.2744543 -0.767545
-0.5763743 0.2664441 -0.7725284
-0.5735103 0.2583783 -0.7773845
-0.5706775 0.250256 -0.782112
-0.5678792 0.2420765 -0.7867097
-0.5651191 0.2338391 -0.7911761
-0.5624008 0.2255432 -0.7955097
-0.559728 0.2171879 -0.7997087
-0.5571048 0.2087729 -0.8037712
-0.5545353 0.2002975 -0.8076952
-0.5520238 0.1917613 -0.8114785
-0.5495748 0.1831642 -0.8151186
-0.5471931 0.1745059 -0.8186131
-0.5448836 0.1657864 -0.8219591
-0.5426512 0.1570058 -0.8251538
-0.5405014 0.1481646 -0.8281941
-0.5384396 0.1392634 -0.8310767
-0.5364715 0.130303 -0.8337982
-0.5346027 0.1212845 -0.8363552
-0.5328393 0.1122095 -0.8387439
-0.5311873 0.1030798 -0.8409605
-0.5296526 0.09389769 -0.8430014
-0.5282413 0.08466573 -0.8448626
-0.5269593 0.07538709 -0.8465404
-0.5258123 0.06606532 -0.8480311
-0.5248056 0.05670447 -0.8493313
-0.5239444 0.04730906 -0.8504376
-0.523233 0.03788403 -0.8513472
-0.5226755 0.02843475 -0.8520574
-0.522275 0.01896695 -0.8525662
-0.5220337 0.00948663 -0.8528721
-0.5219531 2.738693e-09 -0.8529742
-0.5220337 -0.009486624 -0.8528721
-0.522275 -0.01896694 -0.8525662
-0.5226755 -0.02843474 -0.8520574
-0.523233 -0.03788402 -0.8513472
-0.5239444 -0.04730905 -0.8504376
-0.5248056 -0.05670447 -0.8493313
-0.5258123 -0.06606531 -0.8480311
-0.5269593 -0.07538708 -0.8465404
-0.5282413 -0.08466573 -0.8448626
-0.5296526 -0.09389768 -0.8430014
-0.5311873 -0.1030798 -0.8409605
-0.5328393 -0.1122095 -0.8387439
-0.5346027 -0.1212845 -0.8363552
-0.5364715 -0.130303 -0.8337982
-0.5384396 -0.1392634 -0.8310767
-0.5405014 -0.1481646 -0.8281941
-0.5426512 -0.1570058 -0.8251538
-0.5448836 -0.1657864 -0.8219591
-0.5471931 -0.1745059 -0.8186131
-0.5495748 -0.1831642 -0.8151186
-0.5520238 -0.1917613 -0.8114785
-0.5545353 -0.2002975 -0.8076952
-0.5571048 -0.2087729 -0.8037712
-0.559728 -0.2171879 -0.7997087
-0.5624008 -0.2255432 -0.7955097
-0.5651191 -0.2338391 -0.7911761
-0.5678792 -0.2420765 -0.7867097
-0.5706775 -0.250256 -0.782112
-0.5735103 -0.2583783 -0.7773845
-0.5763743 -0.2664441 -0.7725284
-0.5792664 -0.2744543 -0.767545
-0.5821833 -0.2824097 -0.7624352
-0.5851221 -0.290311 -0.7571999
-0.5880798 -0.2981591 -0.75184
-0.5910536 -0.3059548 -0.746356
-0.5940408 -0.3136989 -0.7407487
-0.5970387 -0.3213921 -0.7350183
-0.6000448 -0.3290352 -0.7291653
-0.6030565 -0.336629 -0.72319
-0.6060713 -0.3441741 -0.7170925
-0.6090869 -0.3516713 -0.710873
-0.612101 -0.3591212 -0.7045313
-0.6151111 -0.3665244 -0.6980675
-0.6181149 -0.3738815 -0.6914814
-0.6211104 -0.3811931 -0.6847728
-0.6240951 -0.3884595 -0.6779414
-0.6270669 -0.3956814 -0.6709868
-0.6300237 -0.4028591 -0.6639087
-0.6329631 -0.409993 -0.6567065
-0.6358832 -0.4170833 -0.6493798
-0.6387816 -0.4241304 -0.6419279
-0.6416563 -0.4311344 -0.6343503
-0.6445051 -0.4380955 -0.6266463
-0.6473258 -0.4450137 -0.6188151
-0.6501162 -0.4518891 -0.6108561
-0.6528742 -0.4587217 -0.6027684