# vtk DataFile Version 2.0
Written badly by Kevin Korner
ASCII
DATASET POLYDATA
POINTS 350 FLOAT
0 0 0
0.00286533 0 0
0.005729733 -1.457837e-05 7.136162e-05
0.008591348 -4.193727e-05 0.0002146292
0.0114483 -8.024204e-05 0.0004302315
0.0142987 -0.0001276257 0.0007184794
0.01714066 -0.0001821937 0.001079564
0.0199723 -0.0002420289 0.001513554
0.02279174 -0.0003051965 0.002020397
0.02559711 -0.0003697493 0.002599916
0.02838656 -0.0004337328 0.003251811
0.03115827 -0.0004951906 0.003975661
0.03391044 -0.0005521698 0.004770921
0.0366413 -0.0006027259 0.005636927
0.03934912 -0.0006449284 0.006572896
0.04203222 -0.0006768661 0.007577931
0.04468894 -0.0006966517 0.00865102
0.04731771 -0.0007024271 0.009791043
0.04991699 -0.0006923682 0.01099677
0.05248529 -0.0006646893 0.01226688
0.0550212 -0.0006176477 0.01359994
0.05752337 -0.0005495479 0.01499444
0.05999051 -0.0004587454 0.01644878
0.0624214 -0.0003436502 0.01796126
0.06481492 -0.0002027308 0.01953013
0.06716997 -3.451647e-05 0.02115357
0.06948558 0.0001623993 0.02282966
0.07176082 0.0003893568 0.02455648
0.07399485 0.0006476276 0.026332
0.07618692 0.000938413 0.0281542
0.07833634 0.001262842 0.03002097
0.08044251 0.001621972 0.03193021
0.0825049 0.002016784 0.03387978
0.08452305 0.002448187 0.0358675
0.0864966 0.002917014 0.03789122
0.08842525 0.003424023 0.03994873
0.09030877 0.003969899 0.04203787
0.092147 0.004555252 0.04415645
0.09393987 0.005180619 0.04630229
0.09568736 0.005846467 0.04847325
0.09738951 0.006553191 0.05066718
0.09904644 0.007301117 0.05288197
0.1006583 0.008090504 0.05511553
0.1022254 0.008921546 0.05736582
0.1037479 0.009794373 0.05963081
0.1052263 0.01070905 0.06190852
0.1066608 0.0116656 0.06419701
0.108052 0.01266396 0.06649441
0.1094003 0.01370404 0.06879885
0.1107062 0.01478568 0.07110856
0.1119703 0.01590868 0.07342179
0.1131932 0.0170728 0.07573684
0.1143755 0.01827775 0.0780521
0.1155178 0.01952318 0.08036598
0.1166209 0.02080873 0.08267697
0.1176854 0.02213399 0.08498361
0.1187121 0.02349852 0.08728449
0.1197018 0.02490184 0.08957828
0.120655 0.02634347 0.09186368
0.1215728 0.02782286 0.09413948
0.1224558 0.02933948 0.09640451
0.1233047 0.03089275 0.09865766
0.1241206 0.03248207 0.1008979
0.124904 0.03410685 0.1031242
0.125656 0.03576647 0.1053356
0.1263771 0.03746027 0.1075313
0.1270684 0.03918764 0.1097104
0.1277305 0.04094789 0.1118721
0.1283643 0.04274039 0.1140158
0.1289707 0.04456445 0.1161407
0.1295503 0.04641941 0.1182463
0.130104 0.04830459 0.1203319
0.1306326 0.05021932 0.1223969
0.1311368 0.05216293 0.124441
0.1316174 0.05413473 0.1264637
0.1320752 0.05613406 0.1284645
0.1325108 0.05816025 0.1304431
0.1329252 0.06021264 0.1323991
0.1333188 0.06229057 0.1343324
0.1336925 0.06439338 0.1362425
0.134047 0.06652044 0.1381293
0.1343828 0.0686711 0.1399926
0.1347008 0.07084474 0.1418323
0.1350015 0.07304073 0.1436481
0.1352855 0.07525847 0.1454401
0.1355535 0.07749735 0.147208
0.1358061 0.07975679 0.148952
0.1360439 0.08203619 0.1506718
0.1362674 0.08433501 0.1523676
0.1364773 0.08665266 0.1540393
0.1366739 0.08898862 0.1556869
0.136858 0.09134234 0.1573106
0.1370299 0.0937133 0.1589103
0.1371902 0.09610098 0.1604862
0.1373394 0.0985049 0.1620383
0.1374779 0.1009245 0.1635667
0.1376062 0.1033595 0.1650717
0.1377247 0.1058092 0.1665532
0.1378339 0.1082732 0.1680115
0.1379341 0.1107512 0.1694467
0.1380258 0.1132426 0.170859
0.1381093 0.1157471 0.1722485
0.1381851 0.1182642 0.1736154
0.1382535 0.1207936 0.1749598
0.1383147 0.1233349 0.1762821
0.1383693 0.1258877 0.1775823
0.1384174 0.1284516 0.1788607
0.1384595 0.1310263 0.1801174
0.1384957 0.1336114 0.1813526
0.1385264 0.1362067 0.1825666
0.1385519 0.1388117 0.1837596
0.1385725 0.1414263 0.1849316
0.1385884 0.14405 0.1860831
0.1385998 0.1466827 0.1872141
0.138607 0.1493239 0.1883248
0.1386102 0.1519736 0.1894155
0.1386097 0.1546313 0.1904863
0.1386056 0.1572969 0.1915374
0.1385982 0.15997 0.1925691
0.1385877 0.1626505 0.1935814
0.1385743 0.1653382 0.1945746
0.138558 0.1680327 0.1955489
0.1385392 0.170734 0.1965043
0.138518 0.1734418 0.1974412
0.1384946 0.1761559 0.1983595
0.1384691 0.178876 0.1992596
0.1384416 0.1816021 0.2001414
0.1384123 0.184334 0.2010052
0.1383814 0.1870715 0.2018511
0.138349 0.1898143 0.2026792
0.1383152 0.1925624 0.2034896
0.1382802 0.1953157 0.2042825
0.138244 0.1980739 0.2050579
0.1382068 0.2008369 0.2058158
0.1381688 0.2036046 0.2065565
0.1381299 0.2063768 0.2072799
0.1380904 0.2091534 0.2079862
0.1380504 0.2119344 0.2086753
0.1380098 0.2147195 0.2093474
0.1379689 0.2175086 0.2100024
0.1379278 0.2203017 0.2106404
0.1378865 0.2230986 0.2112614
0.1378451 0.2258993 0.2118655
0.1378038 0.2287035 0.2124525
0.1377625 0.2315113 0.2130226
0.1377215 0.2343224 0.2135757
0.1376807 0.2371368 0.2141117
0.1376404 0.2399545 0.2146307
0.1376005 0.2427753 0.2151325
0.1375611 0.245599 0.2156172
0.1375224 0.2484257 0.2160847
0.1374844 0.2512552 0.2165349
0.1374472 0.2540874 0.2169676
0.1374108 0.2569222 0.217383
0.1373754 0.2597596 0.2177808
0.1373411 0.2625994 0.2181609
0.1373078 0.2654415 0.2185232
0.1372758 0.2682859 0.2188677
0.137245 0.2711324 0.2191942
0.1372155 0.2739809 0.2195025
0.1371874 0.2768314 0.2197926
0.1371608 0.2796837 0.2200643
0.1371358 0.2825377 0.2203174
0.1371124 0.2853933 0.2205518
0.1370906 0.2882505 0.2207673
0.1370707 0.291109 0.2209639
0.1370525 0.2939688 0.2211413
0.1370362 0.2968297 0.2212994
0.1370218 0.2996916 0.2214382
0.1370093 0.3025544 0.2215573
0.1369989 0.305418 0.2216569
0.1369905 0.3082822 0.2217366
0.1369842 0.3111469 0.2217965
0.1369799 0.314012 0.2218364
0.1369778 0.3168772 0.2218564
0.1369778 0.3197426 0.2218564
0.1369799 0.3226078 0.2218364
0.1369842 0.3254729 0.2217965
0.1369905 0.3283376 0.2217366
0.1369989 0.3312018 0.2216569
0.1370093 0.3340653 0.2215573
0.1370218 0.3369282 0.2214382
0.1370362 0.3397901 0.2212994
0.1370525 0.342651 0.2211413
0.1370707 0.3455108 0.2209639
0.1370906 0.3483693 0.2207673
0.1371124 0.3512264 0.2205518
0.1371358 0.3540821 0.2203174
0.1371608 0.3569361 0.2200643
0.1371874 0.3597884 0.2197926
0.1372155 0.3626388 0.2195025
0.137245 0.3654874 0.2191942
0.1372758 0.3683339 0.2188677
0.1373078 0.3711783 0.2185232
0.1373411 0.3740204 0.2181609
0.1373754 0.3768602 0.2177808
0.1374108 0.3796975 0.217383
0.1374472 0.3825324 0.2169676
0.1374844 0.3853646 0.2165349
0.1375224 0.3881941 0.2160847
0.1375611 0.3910208 0.2156172
0.1376005 0.3938445 0.2151325
0.1376404 0.3966653 0.2146307
0.1376807 0.3994829 0.2141117
0.1377215 0.4022974 0.2135757
0.1377625 0.4051085 0.2130226
0.1378038 0.4079163 0.2124525
0.1378451 0.4107205 0.2118655
0.1378865 0.4135211 0.2112614
0.1379278 0.4163181 0.2106404
0.1379689 0.4191111 0.2100024
0.1380098 0.4219003 0.2093474
0.1380504 0.4246854 0.2086753
0.1380904 0.4274663 0.2079862
0.1381299 0.430243 0.2072799
0.1381688 0.4330152 0.2065565
0.1382068 0.4357829 0.2058158
0.138244 0.4385459 0.2050579
0.1382802 0.4413041 0.2042825
0.1383152 0.4440573 0.2034896
0.138349 0.4468054 0.2026792
0.1383814 0.4495483 0.2018511
0.1384123 0.4522858 0.2010052
0.1384416 0.4550176 0.2001414
0.1384691 0.4577437 0.1992596
0.1384946 0.4604639 0.1983595
0.138518 0.463178 0.1974412
0.1385392 0.4658858 0.1965043
0.138558 0.468587 0.1955489
0.1385743 0.4712816 0.1945746
0.1385877 0.4739692 0.1935814
0.1385982 0.4766498 0.1925691
0.1386056 0.4793229 0.1915374
0.1386097 0.4819885 0.1904863
0.1386102 0.4846462 0.1894155
0.138607 0.4872958 0.1883248
0.1385998 0.4899371 0.1872141
0.1385884 0.4925698 0.1860831
0.1385725 0.4951935 0.1849316
0.1385519 0.4978081 0.1837596
0.1385264 0.5004131 0.1825666
0.1384957 0.5030084 0.1813526
0.1384595 0.5055935 0.1801174
0.1384174 0.5081682 0.1788607
0.1383693 0.5107321 0.1775823
0.1383147 0.5132849 0.1762821
0.1382535 0.5158261 0.1749598
0.1381851 0.5183555 0.1736154
0.1381093 0.5208727 0.1722485
0.1380258 0.5233772 0.170859
0.1379341 0.5258686 0.1694467
0.1378339 0.5283465 0.1680115
0.1377247 0.5308106 0.1665532
0.1376062 0.5332603 0.1650717
0.1374779 0.5356952 0.1635667
0.1373394 0.5381149 0.1620383
0.1371902 0.5405188 0.1604862
0.1370299 0.5429065 0.1589103
0.136858 0.5452774 0.1573106
0.1366739 0.5476312 0.1556869
0.1364773 0.5499671 0.1540393
0.1362674 0.5522848 0.1523676
0.1360439 0.5545836 0.1506718
0.1358061 0.556863 0.148952
0.1355535 0.5591224 0.147208
0.1352855 0.5613613 0.1454401
0.1350015 0.563579 0.1436481
0.1347008 0.565775 0.1418323
0.1343828 0.5679487 0.1399926
0.134047 0.5700993 0.1381293
0.1336925 0.5722264 0.1362425
0.1333188 0.5743292 0.1343324
0.1329252 0.5764071 0.1323991
0.1325108 0.5784595 0.1304431
0.1320752 0.5804857 0.1284645
0.1316174 0.582485 0.1264637
0.1311368 0.5844568 0.124441
0.1306326 0.5864005 0.1223969
0.130104 0.5883152 0.1203319
0.1295503 0.5902004 0.1182463
0.1289707 0.5920553 0.1161407
0.1283643 0.5938794 0.1140158
0.1277305 0.5956719 0.1118721
0.1270684 0.5974321 0.1097104
0.1263771 0.5991595 0.1075313
0.125656 0.6008533 0.1053356
0.124904 0.6025129 0.1031242
0.1241206 0.6041377 0.1008979
0.1233047 0.605727 0.09865766
0.1224558 0.6072803 0.09640451
0.1215728 0.6087969 0.09413948
0.120655 0.6102763 0.09186368
0.1197018 0.6117179 0.08957828
0.1187121 0.6131213 0.08728449
0.1176854 0.6144858 0.08498361
0.1166209 0.615811 0.08267697
0.1155178 0.6170966 0.08036598
0.1143755 0.618342 0.0780521
0.1131932 0.619547 0.07573684
0.1119703 0.6207111 0.07342179
0.1107062 0.6218341 0.07110856
0.1094003 0.6229157 0.06879885
0.108052 0.6239558 0.06649441
0.1066608 0.6249542 0.06419701
0.1052263 0.6259107 0.06190852
0.1037479 0.6268254 0.05963081
0.1022254 0.6276982 0.05736582
0.1006583 0.6285293 0.05511553
0.09904644 0.6293187 0.05288197
0.09738951 0.6300666 0.05066718
0.09568736 0.6307733 0.04847325
0.09393987 0.6314392 0.04630229
0.092147 0.6320645 0.04415645
0.09030877 0.6326499 0.04203787
0.08842525 0.6331957 0.03994873
0.0864966 0.6337028 0.03789122
0.08452305 0.6341716 0.0358675
0.0825049 0.634603 0.03387978
0.08044251 0.6349978 0.03193021
0.07833634 0.6353569 0.03002097
0.07618692 0.6356814 0.0281542
0.07399485 0.6359721 0.026332
0.07176082 0.6362304 0.02455648
0.06948558 0.6364574 0.02282966
0.06716997 0.6366543 0.02115357
0.06481492 0.6368225 0.01953014
0.0624214 0.6369634 0.01796126
0.05999051 0.6370785 0.01644878
0.05752337 0.6371693 0.01499444
0.0550212 0.6372374 0.01359994
0.05248529 0.6372845 0.01226688
0.04991699 0.6373121 0.01099677
0.04731771 0.6373222 0.009791043
0.04468894 0.6373164 0.00865102
0.04203222 0.6372966 0.007577931
0.03934912 0.6372647 0.006572896
0.0366413 0.6372225 0.005636927
0.03391044 0.6371719 0.004770921
0.03115827 0.637115 0.003975661
0.02838656 0.6370535 0.003251811
0.02559711 0.6369895 0.002599916
0.02279174 0.636925 0.002020397
0.0199723 0.6368618 0.001513554
0.01714066 0.636802 0.001079564
0.0142987 0.6367474 0.0007184794
0.0114483 0.6367 0.0004302315
0.008591348 0.6366617 0.0002146292
0.005729733 0.6366344 7.136162e-05
0.00286533 0.6366198 0
0 0.6366198 0

LINES 349 1047
2 0 1
2 1 2
2 2 3
2 3 4
2 4 5
2 5 6
2 6 7
2 7 8
2 8 9
2 9 10
2 10 11
2 11 12
2 12 13
2 13 14
2 14 15
2 15 16
2 16 17
2 17 18
2 18 19
2 19 20
2 20 21
2 21 22
2 22 23
2 23 24
2 24 25
2 25 26
2 26 27
2 27 28
2 28 29
2 29 30
2 30 31
2 31 32
2 32 33
2 33 34
2 34 35
2 35 36
2 36 37
2 37 38
2 38 39
2 39 40
2 40 41
2 41 42
2 42 43
2 43 44
2 44 45
2 45 46
2 46 47
2 47 48
2 48 49
2 49 50
2 50 51
2 51 52
2 52 53
2 53 54
2 54 55
2 55 56
2 56 57
2 57 58
2 58 59
2 59 60
2 60 61
2 61 62
2 62 63
2 63 64
2 64 65
2 65 66
2 66 67
2 67 68
2 68 69
2 69 70
2 70 71
2 71 72
2 72 73
2 73 74
2 74 75
2 75 76
2 76 77
2 77 78
2 78 79
2 79 80
2 80 81
2 81 82
2 82 83
2 83 84
2 84 85
2 85 86
2 86 87
2 87 88
2 88 89
2 89 90
2 90 91
2 91 92
2 92 93
2 93 94
2 94 95
2 95 96
2 96 97
2 97 98
2 98 99
2 99 100
2 100 101
2 101 102
2 102 103
2 103 104
2 104 105
2 105 106
2 106 107
2 107 108
2 108 109
2 109 110
2 110 111
2 111 112
2 112 113
2 113 114
2 114 115
2 115 116
2 116 117
2 117 118
2 118 119
2 119 120
2 120 121
2 121 122
2 122 123
2 123 124
2 124 125
2 125 126
2 126 127
2 127 128
2 128 129
2 129 130
2 130 131
2 131 132
2 132 133
2 133 134
2 134 135
2 135 136
2 136 137
2 137 138
2 138 139
2 139 140
2 140 141
2 141 142
2 142 143
2 143 144
2 144 145
2 145 146
2 146 147
2 147 148
2 148 149
2 149 150
2 150 151
2 151 152
2 152 153
2 153 154
2 154 155
2 155 156
2 156 157
2 157 158
2 158 159
2 159 160
2 160 161
2 161 162
2 162 163
2 163 164
2 164 165
2 165 166
2 166 167
2 167 168
2 168 169
2 169 170
2 170 171
2 171 172
2 172 173
2 173 174
2 174 175
2 175 176
2 176 177
2 177 178
2 178 179
2 179 180
2 180 181
2 181 182
2 182 183
2 183 184
2 184 185
2 185 186
2 186 187
2 187 188
2 188 189
2 189 190
2 190 191
2 191 192
2 192 193
2 193 194
2 194 195
2 195 196
2 196 197
2 197 198
2 198 199
2 199 200
2 200 201
2 201 202
2 202 203
2 203 204
2 204 205
2 205 206
2 206 207
2 207 208
2 208 209
2 209 210
2 210 211
2 211 212
2 212 213
2 213 214
2 214 215
2 215 216
2 216 217
2 217 218
2 218 219
2 219 220
2 220 221
2 221 222
2 222 223
2 223 224
2 224 225
2 225 226
2 226 227
2 227 228
2 228 229
2 229 230
2 230 231
2 231 232
2 232 233
2 233 234
2 234 235
2 235 236
2 236 237
2 237 238
2 238 239
2 239 240
2 240 241
2 241 242
2 242 243
2 243 244
2 244 245
2 245 246
2 246 247
2 247 248
2 248 249
2 249 250
2 250 251
2 251 252
2 252 253
2 253 254
2 254 255
2 255 256
2 256 257
2 257 258
2 258 259
2 259 260
2 260 261
2 261 262
2 262 263
2 263 264
2 264 265
2 265 266
2 266 267
2 267 268
2 268 269
2 269 270
2 270 271
2 271 272
2 272 273
2 273 274
2 274 275
2 275 276
2 276 277
2 277 278
2 278 279
2 279 280
2 280 281
2 281 282
2 282 283
2 283 284
2 284 285
2 285 286
2 286 287
2 287 288
2 288 289
2 289 290
2 290 291
2 291 292
2 292 293
2 293 294
2 294 295
2 295 296
2 296 297
2 297 298
2 298 299
2 299 300
2 300 301
2 301 302
2 302 303
2 303 304
2 304 305
2 305 306
2 306 307
2 307 308
2 308 309
2 309 310
2 310 311
2 311 312
2 312 313
2 313 314
2 314 315
2 315 316
2 316 317
2 317 318
2 318 319
2 319 320
2 320 321
2 321 322
2 322 323
2 323 324
2 324 325
2 325 326
2 326 327
2 327 328
2 328 329
2 329 330
2 330 331
2 331 332
2 332 333
2 333 334
2 334 335
2 335 336
2 336 337
2 337 338
2 338 339
2 339 340
2 340 341
2 341 342
2 342 343
2 343 344
2 344 345
2 345 346
2 346 347
2 347 348
2 348 349


POINT_DATA 350
SCALARS a FLOAT 1
LOOKUP_TABLE default
0.0005894628
0.0005894628
0.0005894628
0.0005894628
0.0005894628
0.0005894628
0.0005894628
0.0005894628
0.0005894628
0.0005894628
0.0005894628
0.0005894628
0.0005894628
0.0005894628
0.0005894628
0.0005894628
0.0005894628
0.0005894628
0.0005894628
0.0005894628
0.0005894628
0.0005894628
0.0005894628
0.0005894628
0.0005894628
0.0005894628
0.0005894628
0.0005894628
0.0005894628
0.0005894628
0.0005894628
0.0005894628
0.0005894628
0.0005894628
0.0005894628
0.0005894628
0.0005894628
0.0005894628
0.0005894628
0.0005894628
0.0005894628
0.0005894628
0.0005894628
0.0005894628
0.0005894628
0.0005894628
0.0005894628
0.0005894628
0.0005894628
0.0005894628
0.0005894628
0.0005894628
0.0005894628
0.0005894628
0.0005894628
0.0005894628
0.0005894628
0.0005894628
0.0005894628
0.0005894628
0.0005894628
0.0005894628
0.0005894628
0.0005894628
0.0005894628
0.0005894628
0.0005894628
0.0005894628
0.0005894628
0.0005894628
0.0005894628
0.0005894628
0.0005894628
0.0005894628
0.0005894628
0.0005894628
0.0005894628
0.0005894628
0.0005894628
0.0005894628
0.0005894628
0.0005894628
0.0005894628
0.0005894628
0.0005894628
0.0005894628
0.0005894628
0.0005894628
0.0005894628
0.0005894628
0.0005894628
0.0005894628
0.0005894628
0.0005894628
0.0005894628
0.0005894628
0.0005894628
0.0005894628
0.0005894628
0.0005894628
0.0005894628
0.0005894628
0.0005894628
0.0005894628
0.0005894628
0.0005894628
0.0005894628
0.0005894628
0.0005894628
0.0005894628
0.0005894628
0.0005894628
0.0005894628
0.0005894628
0.0005894628
0.0005894628
0.0005894628
0.0005894628
0.0005894628
0.0005894628
0.0005894628
0.0005894628
0.0005894628
0.0005894628
0.0005894628
0.0005894628
0.0005894628
0.0005894628
0.0005894628
0.0005894628
0.0005894628
0.0005894628
0.0005894628
0.0005894628
0.0005894628
0.0005894628
0.0005894628
0.0005894628
0.0005894628
0.0005894628
0.0005894628
0.0005894628
0.0005894628
0.0005894628
0.0005894628
0.0005894628
0.0005894628
0.0005894628
0.0005894628
0.0005894628
0.0005894628
0.0005894628
0.0005894628
0.0005894628
0.0005894628
0.0005894628
0.0005894628
0.0005894628
0.0005894628
0.0005894628
0.0005894628
0.0005894628
0.0005894628
0.0005894628
0.0005894628
0.0005894628
0.0005894628
0.0005894628
0.0005894628
0.0005894628
0.0005894628
0.0005894628
0.0005894628
0.0005894628
0.0005894628
0.0005894628
0.0005894628
0.0005894628
0.0005894628
0.0005894628
0.0005894628
0.0005894628
0.0005894628
0.0005894628
0.0005894628
0.0005894628
0.0005894628
0.0005894628
0.0005894628
0.0005894628
0.0005894628
0.0005894628
0.0005894628
0.0005894628
0.0005894628
0.0005894628
0.0005894628
0.0005894628
0.0005894628
0.0005894628
0.0005894628
0.0005894628
0.0005894628
0.0005894628
0.0005894628
0.0005894628
0.0005894628
0.0005894628
0.0005894628
0.0005894628
0.0005894628
0.0005894628
0.0005894628
0.0005894628
0.0005894628
0.0005894628
0.0005894628
0.0005894628
0.0005894628
0.0005894628
0.0005894628
0.0005894628
0.0005894628
0.0005894628
0.0005894628
0.0005894628
0.0005894628
0.0005894628
0.0005894628
0.0005894628
0.0005894628
0.0005894628
0.0005894628
0.0005894628
0.0005894628
0.0005894628
0.0005894628
0.0005894628
0.0005894628
0.0005894628
0.0005894628
0.0005894628
0.0005894628
0.0005894628
0.0005894628
0.0005894628
0.0005894628
0.0005894628
0.0005894628
0.0005894628
0.0005894628
0.0005894628
0.0005894628
0.0005894628
0.0005894628
0.0005894628
0.0005894628
0.0005894628
0.0005894628
0.0005894628
0.0005894628
0.0005894628
0.0005894628
0.0005894628
0.0005894628
0.0005894628
0.0005894628
0.0005894628
0.0005894628
0.0005894628
0.0005894628
0.0005894628
0.0005894628
0.0005894628
0.0005894628
0.0005894628
0.0005894628
0.0005894628
0.0005894628
0.0005894628
0.0005894628
0.0005894628
0.0005894628
0.0005894628
0.0005894628
0.0005894628
0.0005894628
0.0005894628
0.0005894628
0.0005894628
0.0005894628
0.0005894628
0.0005894628
0.0005894628
0.0005894628
0.0005894628
0.0005894628
0.0005894628
0.0005894628
0.0005894628
0.0005894628
0.0005894628
0.0005894628
0.0005894628
0.0005894628
0.0005894628
0.0005894628
0.0005894628
0.0005894628
0.0005894628
0.0005894628
0.0005894628
0.0005894628
0.0005894628
0.0005894628
0.0005894628
0.0005894628
0.0005894628
0.0005894628
0.0005894628
0.0005894628
0.0005894628
0.0005894628
0.0005894628
0.0005894628
0.0005894628
0.0005894628
0.0005894628
0.0005894628
0.0005894628
0.0005894628
0.0005894628
0.0005894628
0.0005894628
0.0005894628
0.0005894628
0.0005894628
0.0005894628
0.0005894628
0.0005894628
0.0005894628
0.0005894628
0.0005894628
0.0005894628
0.0005894628
0.0005894628
0.0005894628
0.0005894628
0.0005894628
0.0005894628


SCALARS b FLOAT 1
LOOKUP_TABLE default
0.04420971
0.04420971
0.04420971
0.04420971
0.04420971
0.04420971
0.04420971
0.04420971
0.04420971
0.04420971
0.04420971
0.04420971
0.04420971
0.04420971
0.04420971
0.04420971
0.04420971
0.04420971
0.04420971
0.04420971
0.04420971
0.04420971
0.04420971
0.04420971
0.04420971
0.04420971
0.04420971
0.04420971
0.04420971
0.04420971
0.04420971
0.04420971
0.04420971
0.04420971
0.04420971
0.04420971
0.04420971
0.04420971
0.04420971
0.04420971
0.04420971
0.04420971
0.04420971
0.04420971
0.04420971
0.04420971
0.04420971
0.04420971
0.04420971
0.04420971
0.04420971
0.04420971
0.04420971
0.04420971
0.04420971
0.04420971
0.04420971
0.04420971
0.04420971
0.04420971
0.04420971
0.04420971
0.04420971
0.04420971
0.04420971
0.04420971
0.04420971
0.04420971
0.04420971
0.04420971
0.04420971
0.04420971
0.04420971
0.04420971
0.04420971
0.04420971
0.04420971
0.04420971
0.04420971
0.04420971
0.04420971
0.04420971
0.04420971
0.04420971
0.04420971
0.04420971
0.04420971
0.04420971
0.04420971
0.04420971
0.04420971
0.04420971
0.04420971
0.04420971
0.04420971
0.04420971
0.04420971
0.04420971
0.04420971
0.04420971
0.04420971
0.04420971
0.04420971
0.04420971
0.04420971
0.04420971
0.04420971
0.04420971
0.04420971
0.04420971
0.04420971
0.04420971
0.04420971
0.04420971
0.04420971
0.04420971
0.04420971
0.04420971
0.04420971
0.04420971
0.04420971
0.04420971
0.04420971
0.04420971
0.04420971
0.04420971
0.04420971
0.04420971
0.04420971
0.04420971
0.04420971
0.04420971
0.04420971
0.04420971
0.04420971
0.04420971
0.04420971
0.04420971
0.04420971
0.04420971
0.04420971
0.04420971
0.04420971
0.04420971
0.04420971
0.04420971
0.04420971
0.04420971
0.04420971
0.04420971
0.04420971
0.04420971
0.04420971
0.04420971
0.04420971
0.04420971
0.04420971
0.04420971
0.04420971
0.04420971
0.04420971
0.04420971
0.04420971
0.04420971
0.04420971
0.04420971
0.04420971
0.04420971
0.04420971
0.04420971
0.04420971
0.04420971
0.04420971
0.04420971
0.04420971
0.04420971
0.04420971
0.04420971
0.04420971
0.04420971
0.04420971
0.04420971
0.04420971
0.04420971
0.04420971
0.04420971
0.04420971
0.04420971
0.04420971
0.04420971
0.04420971
0.04420971
0.04420971
0.04420971
0.04420971
0.04420971
0.04420971
0.04420971
0.04420971
0.04420971
0.04420971
0.04420971
0.04420971
0.04420971
0.04420971
0.04420971
0.04420971
0.04420971
0.04420971
0.04420971
0.04420971
0.04420971
0.04420971
0.04420971
0.04420971
0.04420971
0.04420971
0.04420971
0.04420971
0.04420971
0.04420971
0.04420971
0.04420971
0.04420971
0.04420971
0.04420971
0.04420971
0.04420971
0.04420971
0.04420971
0.04420971
0.04420971
0.04420971
0.04420971
0.04420971
0.04420971
0.04420971
0.04420971
0.04420971
0.04420971
0.04420971
0.04420971
0.04420971
0.04420971
0.04420971
0.04420971
0.04420971
0.04420971
0.04420971
0.04420971
0.04420971
0.04420971
0.04420971
0.04420971
0.04420971
0.04420971
0.04420971
0.04420971
0.04420971
0.04420971
0.04420971
0.04420971
0.04420971
0.04420971
0.04420971
0.04420971
0.04420971
0.04420971
0.04420971
0.04420971
0.04420971
0.04420971
0.04420971
0.04420971
0.04420971
0.04420971
0.04420971
0.04420971
0.04420971
0.04420971
0.04420971
0.04420971
0.04420971
0.04420971
0.04420971
0.04420971
0.04420971
0.04420971
0.04420971
0.04420971
0.04420971
0.04420971
0.04420971
0.04420971
0.04420971
0.04420971
0.04420971
0.04420971
0.04420971
0.04420971
0.04420971
0.04420971
0.04420971
0.04420971
0.04420971
0.04420971
0.04420971
0.04420971
0.04420971
0.04420971
0.04420971
0.04420971
0.04420971
0.04420971
0.04420971
0.04420971
0.04420971
0.04420971
0.04420971
0.04420971
0.04420971
0.04420971
0.04420971
0.04420971
0.04420971
0.04420971
0.04420971
0.04420971
0.04420971
0.04420971
0.04420971
0.04420971
0.04420971
0.04420971
0.04420971
0.04420971
0.04420971
0.04420971
0.04420971
0.04420971
0.04420971
0.04420971
0.04420971
0.04420971
0.04420971
0.04420971
0.04420971
0.04420971
0.04420971
0.04420971


VECTORS d1 FLOAT
0 -0.2126211 0.9771347
-0.0254175 -0.1875157 0.9819327
-0.0508872 -0.162106 0.9854604
-0.07636702 -0.1364314 0.9877016
-0.1018145 -0.1105324 0.9886437
-0.1271866 -0.08445063 0.9882771
-0.1524406 -0.05822839 0.9865958
-0.1775335 -0.03190874 0.9835973
-0.2024225 -0.00553521 0.9792826
-0.2270653 0.02084836 0.9736564
-0.2514202 0.04719802 0.9667265
-0.2754463 0.07346984 0.9585048
-0.2991033 0.09962013 0.9490064
-0.3223523 0.1256056 0.9382496
-0.3451555 0.1513836 0.9262563
-0.3674766 0.1769122 0.9130515
-0.3892805 0.2021504 0.8986634
-0.4105342 0.2270583 0.883123
-0.4312062 0.2515971 0.8664642
-0.4512668 0.2757297 0.8487234
-0.4706885 0.2994201 0.8299397
-0.4894458 0.3226345 0.8101542
-0.5075153 0.3453402 0.7894102
-0.5248756 0.3675069 0.7677527
-0.541508 0.3891059 0.7452286
-0.5573956 0.4101107 0.721886
-0.5725239 0.4304969 0.6977742
-0.5868809 0.450242 0.6729435
-0.6004566 0.4693259 0.647445
-0.6132434 0.4877306 0.6213303
-0.6252359 0.5054403 0.5946513
-0.6364309 0.5224413 0.56746
-0.6468272 0.5387222 0.5398083
-0.6564257 0.5542738 0.5117478
-0.6652294 0.5690889 0.4833297
-0.6732432 0.5831624 0.4546045
-0.6804736 0.5964912 0.4256218
-0.6869291 0.6090742 0.3964303
-0.6926197 0.6209122 0.3670776
-0.6975569 0.6320078 0.3376101
-0.7017536 0.6423652 0.3080726
-0.7052243 0.6519904 0.2785087
-0.7079844 0.6608909 0.2489603
-0.7100505 0.6690757 0.2194678
-0.7114401 0.6765549 0.1900696
-0.7121719 0.6833401 0.1608026
-0.7122649 0.6894442 0.1317019
-0.7117393 0.6948807 0.1028005
-0.7106154 0.6996645 0.0741298
-0.7089144 0.7038112 0.04571919
-0.7066575 0.707337 0.01759623
-0.7038664 0.710259 -0.01021343
-0.700563 0.7125948 -0.03768596
-0.6967692 0.7143624 -0.0647994
-0.6925072 0.7155804 -0.09153356
-0.6877989 0.7162677 -0.1178701
-0.6826661 0.7164431 -0.1437922
-0.6771307 0.7161261 -0.1692851
-0.6712141 0.7153359 -0.1943352
-0.6649376 0.7140919 -0.218931
-0.6583221 0.7124134 -0.243062
-0.6513881 0.7103198 -0.2667196
-0.6441559 0.7078301 -0.2898963
-0.636645 0.7049632 -0.3125861
-0.6288747 0.701738 -0.3347842
-0.6208637 0.6981728 -0.356487
-0.6126302 0.6942858 -0.3776922
-0.6041919 0.6900948 -0.3983984
-0.5955659 0.6856172 -0.4186052
-0.5867686 0.6808701 -0.4383133
-0.5778161 0.67587 -0.4575241
-0.5687236 0.6706331 -0.4762401
-0.559506 0.6651752 -0.4944643
-0.5501774 0.6595116 -0.5122005
-0.5407513 0.6536569 -0.5294532
-0.5312408 0.6476256 -0.5462274
-0.5216582 0.6414314 -0.5625287
-0.5120153 0.6350875 -0.5783633
-0.5023235 0.6286069 -0.5937377
-0.4925934 0.6220018 -0.6086587
-0.4828352 0.615284 -0.6231338
-0.4730584 0.6084649 -0.6371705
-0.4632721 0.6015553 -0.6507766
-0.4534848 0.5945654 -0.6639604
-0.4437048 0.5875053 -0.6767301
-0.4339394 0.5803841 -0.6890942
-0.4241958 0.573211 -0.7010614
-0.4144808 0.5659943 -0.7126403
-0.4048004 0.558742 -0.7238398
-0.3951605 0.5514617 -0.7346687
-0.3855665 0.5441606 -0.745136
-0.3760233 0.5368454 -0.7552506
-0.3665356 0.5295225 -0.7650213
-0.3571076 0.5221977 -0.7744571
-0.3477432 0.5148766 -0.7835667
-0.338446 0.5075644 -0.7923589
-0.3292193 0.5002659 -0.8008425
-0.3200661 0.4929854 -0.809026
-0.3109889 0.4857273 -0.8169179
-0.3019902 0.4784951 -0.8245267
-0.2930722 0.4712924 -0.8318607
-0.2842368 0.4641222 -0.8389279
-0.2754855 0.4569876 -0.8457364
-0.26682 0.4498909 -0.8522941
-0.2582414 0.4428344 -0.8586088
-0.2497507 0.4358201 -0.864688
-0.241349 0.4288498 -0.8705392
-0.2330368 0.4219249 -0.8761696
-0.2248147 0.4150466 -0.8815864
-0.2166832 0.4082159 -0.8867966
-0.2086425 0.4014335 -0.8918068
-0.2006928 0.3947 -0.8966239
-0.192834 0.3880156 -0.9012541
-0.1850663 0.3813804 -0.9057039
-0.1773893 0.3747943 -0.9099793
-0.1698029 0.368257 -0.9140863
-0.1623067 0.361768 -0.9180308
-0.1549004 0.3553266 -0.9218183
-0.1475836 0.3489319 -0.9254543
-0.1403558 0.342583 -0.9289441
-0.1332165 0.3362787 -0.9322929
-0.1261651 0.3300175 -0.9355056
-0.1192013 0.3237982 -0.9385871
-0.1123243 0.3176189 -0.9415421
-0.1055338 0.3114781 -0.9443749
-0.09882904 0.3053738 -0.9470901
-0.09220966 0.299304 -0.9496918
-0.08567516 0.2932667 -0.952184
-0.07922509 0.2872596 -0.9545707
-0.07285907 0.2812806 -0.9568557
-0.06657677 0.2753271 -0.9590425
-0.0603779 0.2693968 -0.9611347
-0.05426228 0.2634872 -0.9631355
-0.04822979 0.2575957 -0.9650484
-0.04228039 0.2517196 -0.9668762
-0.03641417 0.2458563 -0.9686221
-0.0306313 0.240003 -0.9702888
-0.02493207 0.234157 -0.971879
-0.01931691 0.2283155 -0.9733956
-0.01378636 0.2224756 -0.9748408
-0.008341136 0.2166345 -0.9762171
-0.002982088 0.2107894 -0.977527
0.00228976 0.2049373 -0.9787724
0.007473206 0.1990755 -0.9799557
0.01256685 0.193201 -0.9810787
0.01756911 0.187311 -0.9821435
0.02247815 0.1814026 -0.983152
0.02729192 0.175473 -0.9841059
0.03200811 0.1695193 -0.9850069
0.03662415 0.1635388 -0.9858568
0.04113717 0.1575288 -0.9866572
0.04554398 0.1514864 -0.9874095
0.04984108 0.1454092 -0.9881154
0.05402457 0.1392944 -0.9887762
0.0580902 0.1331396 -0.9893934
0.06203328 0.1269424 -0.9899684
0.06584869 0.1207005 -0.9905026
0.06953082 0.1144119 -0.9909972
0.07307357 0.1080745 -0.9914536
0.07647031 0.1016866 -0.991873
0.07971384 0.09524678 -0.9922569
0.08279641 0.08875388 -0.9926064
0.08570968 0.0822071 -0.9929229
0.08844474 0.0756061 -0.9932076
0.09099214 0.06895105 -0.9934617
0.09334195 0.06224273 -0.9936866
0.09548389 0.05548262 -0.9938835
0.0974074 0.04867298 -0.9940537
0.09910194 0.04181694 -0.9941982
0.1005572 0.03491856 -0.9943183
0.1017634 0.02798289 -0.994415
0.1027117 0.02101594 -0.9944891
0.1033949 0.01402461 -0.9945415
0.1038071 0.007016559 -0.9945727
0.1039449 2.458769e-10 -0.9945831
0.1038071 -0.007016558 -0.9945727
0.1033949 -0.01402461 -0.9945415
0.1027117 -0.02101594 -0.9944891
0.1017634 -0.02798289 -0.994415
0.1005572 -0.03491856 -0.9943183
0.09910194 -0.04181694 -0.9941982
0.0974074 -0.04867298 -0.9940537
0.09548389 -0.05548262 -0.9938835
0.09334195 -0.06224273 -0.9936866
0.09099214 -0.06895105 -0.9934617
0.08844474 -0.0756061 -0.9932076
0.08570968 -0.0822071 -0.9929229
0.08279641 -0.08875388 -0.9926064
0.07971384 -0.09524678 -0.9922569
0.07647031 -0.1016866 -0.991873
0.07307357 -0.1080745 -0.9914536
0.06953082 -0.1144119 -0.9909972
0.06584869 -0.1207005 -0.9905026
0.06203328 -0.1269424 -0.9899684
0.0580902 -0.1331396 -0.9893934
0.05402457 -0.1392944 -0.9887762
0.04984108 -0.1454092 -0.9881154
0.04554398 -0.1514864 -0.9874095
0.04113717 -0.1575288 -0.9866572
0.03662415 -0.1635388 -0.9858568
0.03200811 -0.1695193 -0.9850069
0.02729192 -0.175473 -0.9841059
0.02247815 -0.1814026 -0.983152
0.01756911 -0.187311 -0.9821435
0.01256686 -0.193201 -0.9810787
0.007473207 -0.1990755 -0.9799557
0.002289762 -0.2049373 -0.9787724
-0.002982086 -0.2107894 -0.977527
-0.008341135 -0.2166345 -0.9762171
-0.01378636 -0.2224756 -0.9748408
-0.0193169 -0.2283155 -0.9733956
-0.02493207 -0.234157 -0.9718791
-0.0306313 -0.240003 -0.9702888
-0.03641417 -0.2458563 -0.9686221
-0.04228039 -0.2517196 -0.9668762
-0.04822979 -0.2575957 -0.9650484
-0.05426228 -0.2634872 -0.9631355
-0.0603779 -0.2693968 -0.9611347
-0.06657676 -0.2753271 -0.9590425
-0.07285907 -0.2812806 -0.9568557
-0.07922509 -0.2872596 -0.9545707
-0.08567516 -0.2932667 -0.952184
-0.09220966 -0.299304 -0.9496918
-0.09882903 -0.3053738 -0.9470901
-0.1055338 -0.3114781 -0.9443749
-0.1123243 -0.3176189 -0.9415421
-0.1192013 -0.3237982 -0.9385871
-0.1261651 -0.3300175 -0.9355056