# vtk DataFile Version 2.0
Written badly by Kevin Korner
ASCII
DATASET POLYDATA
POINTS 350 FLOAT
0 0 0
0.00286533 0 0
0.005729413 -3.107496e-05 7.855657e-05
0.008589729 -9.113946e-05 0.0002369836
0.01144371 -0.000178006 0.0004764403
0.01428877 -0.0002893908 0.0007979233
0.01712228 -0.0004229196 0.001202259
0.01994162 -0.0005761352 0.001690098
0.02274414 -0.0007465044 0.002261909
0.02552721 -0.0009314267 0.002917972
0.02828822 -0.001128242 0.003658377
0.03102458 -0.001334242 0.004483023
0.03373372 -0.001546676 0.00539161
0.03641314 -0.001762765 0.006383644
0.03906038 -0.001979708 0.007458435
0.04167304 -0.002194694 0.008615101
0.04424882 -0.002404915 0.009852566
0.04678546 -0.00260757 0.01116957
0.04928082 -0.002799883 0.01256466
0.05173286 -0.002979108 0.01403623
0.05413962 -0.00314254 0.01558248
0.05649928 -0.003287525 0.01720146
0.05881013 -0.003411472 0.01889106
0.06107056 -0.003511857 0.02064903
0.06327913 -0.003586235 0.02247299
0.06543448 -0.003632246 0.02436043
0.06753543 -0.003647625 0.02630874
0.06958091 -0.003630204 0.02831518
0.07156999 -0.003577921 0.03037697
0.07350188 -0.003488826 0.0324912
0.07537592 -0.003361084 0.03465493
0.07719161 -0.003192975 0.03686517
0.07894855 -0.002982906 0.03911886
0.0806465 -0.002729403 0.04141294
0.08228534 -0.002431121 0.04374433
0.08386505 -0.002086839 0.04610993
0.08538578 -0.001695461 0.04850667
0.08684775 -0.00125602 0.05093146
0.08825132 -0.000767669 0.05338128
0.08959695 -0.0002296868 0.05585312
0.09088519 0.0003585293 0.05834401
0.0921167 0.0009974647 0.06085105
0.09329222 0.00168749 0.0633714
0.09441257 0.002428867 0.06590226
0.09547865 0.00322175 0.06844095
0.09649143 0.004066191 0.07098483
0.09745193 0.004962147 0.07353136
0.09836126 0.005909479 0.07607808
0.09922054 0.006907963 0.07862264
0.100031 0.007957291 0.08116276
0.1007938 0.00905708 0.08369628
0.1015102 0.01020687 0.08622113
0.1021815 0.01140614 0.08873533
0.102809 0.01265431 0.09123701
0.1033941 0.01395072 0.0937244
0.103938 0.0152947 0.09619583
0.1044422 0.01668549 0.09864974
0.1049079 0.01812231 0.1010846
0.1053365 0.01960435 0.1034992
0.1057293 0.02113075 0.1058921
0.1060877 0.02270063 0.1082621
0.1064131 0.02431308 0.1106082
0.1067066 0.02596718 0.1129294
0.1069696 0.02766199 0.1152247
0.1072034 0.02939655 0.1174934
0.1074093 0.03116988 0.1197346
0.1075884 0.03298103 0.1219477
0.1077419 0.03482901 0.1241321
0.1078711 0.03671284 0.1262872
0.1079771 0.03863155 0.1284126
0.108061 0.04058416 0.130508
0.1081239 0.04256971 0.1325728
0.1081669 0.04458723 0.134607
0.108191 0.04663577 0.1366103
0.1081971 0.04871439 0.1385824
0.1081864 0.05082217 0.1405234
0.1081597 0.05295819 0.142433
0.1081179 0.05512155 0.1443114
0.1080619 0.05731137 0.1461585
0.1079925 0.05952678 0.1479743
0.1079106 0.06176693 0.149759
0.107817 0.06403099 0.1515127
0.1077123 0.06631814 0.1532355
0.1075974 0.06862759 0.1549276
0.1074728 0.07095857 0.1565893
0.1073394 0.07331032 0.1582207
0.1071977 0.0756821 0.1598222
0.1070483 0.0780732 0.161394
0.1068919 0.08048292 0.1629363
0.1067289 0.08291058 0.1644496
0.1065599 0.08535554 0.1659341
0.1063855 0.08781714 0.1673902
0.1062061 0.09029478 0.1688182
0.1060221 0.09278785 0.1702185
0.105834 0.09529578 0.1715915
0.1056423 0.09781801 0.1729375
0.1054473 0.100354 0.1742569
0.1052494 0.1029032 0.1755502
0.105049 0.1054651 0.1768176
0.1048464 0.1080393 0.1780597
0.1046419 0.1106252 0.1792768
0.1044358 0.1132225 0.1804693
0.1042284 0.1158306 0.1816375
0.1040201 0.1184491 0.182782
0.1038109 0.1210777 0.1839031
0.1036013 0.123716 0.1850012
0.1033914 0.1263635 0.1860767
0.1031815 0.1290199 0.18713
0.1029716 0.1316849 0.1881615
0.1027622 0.1343581 0.1891715
0.1025532 0.1370392 0.1901605
0.1023449 0.139728 0.1911287
0.1021375 0.142424 0.1920766
0.1019311 0.145127 0.1930046
0.1017258 0.1478368 0.1939129
0.1015218 0.150553 0.194802
0.1013192 0.1532755 0.1956721
0.1011181 0.156004 0.1965236
0.1009186 0.1587383 0.1973569
0.1007209 0.161478 0.1981721
0.100525 0.1642231 0.1989697
0.100331 0.1669734 0.1997498
0.100139 0.1697286 0.2005129
0.09994916 0.1724885 0.2012592
0.09976145 0.175253 0.2019888
0.09957598 0.1780219 0.2027022
0.09939283 0.180795 0.2033995
0.09921206 0.1835723 0.2040809
0.09903374 0.1863535 0.2047467
0.09885792 0.1891385 0.2053971
0.09868467 0.1919271 0.2060323
0.09851404 0.1947193 0.2066525
0.09834609 0.1975149 0.2072578
0.09818088 0.2003139 0.2078484
0.09801845 0.203116 0.2084245
0.09785886 0.2059212 0.2089862
0.09770216 0.2087294 0.2095337
0.0975484 0.2115404 0.210067
0.09739763 0.2143543 0.2105863
0.0972499 0.2171708 0.2110917
0.09710527 0.2199899 0.2115832
0.09696378 0.2228116 0.212061
0.09682549 0.2256357 0.2125252
0.09669044 0.2284622 0.2129757
0.0965587 0.2312909 0.2134126
0.09643031 0.2341219 0.213836
0.09630533 0.236955 0.2142459
0.09618381 0.2397902 0.2146423
0.09606581 0.2426273 0.2150252
0.0959514 0.2454665 0.2153947
0.09584061 0.2483074 0.2157507
0.09573353 0.2511502 0.2160932
0.0956302 0.2539947 0.2164222
0.09553069 0.2568409 0.2167376
0.09543506 0.2596886 0.2170395
0.09534337 0.262538 0.2173277
0.0952557 0.2653888 0.2176023
0.0951721 0.268241 0.2178631
0.09509264 0.2710945 0.2181101
0.09501739 0.2739494 0.2183432
0.09494641 0.2768054 0.2185623
0.09487977 0.2796626 0.2187675
0.09481754 0.2825209 0.2189585
0.09475979 0.2853802 0.2191353
0.09470657 0.2882404 0.2192977
0.09465795 0.2911015 0.2194458
0.09461399 0.2939634 0.2195794
0.09457476 0.296826 0.2196985
0.09454029 0.2996892 0.2198028
0.09451064 0.302553 0.2198925
0.09448587 0.3054172 0.2199673
0.094466 0.3082818 0.2200272
0.09445106 0.3111468 0.2200722
0.0944411 0.3140119 0.2201022
0.09443611 0.3168772 0.2201173
0.09443611 0.3197426 0.2201173
0.0944411 0.3226078 0.2201022
0.09445106 0.325473 0.2200722
0.094466 0.3283379 0.2200272
0.09448587 0.3312026 0.2199673
0.09451064 0.3340668 0.2198925
0.09454029 0.3369306 0.2198028
0.09457476 0.3397938 0.2196985
0.09461399 0.3426564 0.2195794
0.09465795 0.3455183 0.2194458
0.09470657 0.3483794 0.2192977
0.09475979 0.3512396 0.2191353
0.09481754 0.3540989 0.2189585
0.09487977 0.3569571 0.2187675
0.09494641 0.3598143 0.2185623
0.09501739 0.3626704 0.2183432
0.09509264 0.3655252 0.2181101
0.0951721 0.3683788 0.2178631
0.0952557 0.371231 0.2176023
0.09534337 0.3740818 0.2173277
0.09543506 0.3769311 0.2170395
0.09553069 0.3797789 0.2167376
0.0956302 0.3826251 0.2164222
0.09573353 0.3854696 0.2160932
0.09584061 0.3883123 0.2157507
0.0959514 0.3911533 0.2153947
0.09606581 0.3939924 0.2150252
0.09618381 0.3968296 0.2146423
0.09630533 0.3996648 0.2142459
0.09643031 0.4024979 0.213836
0.0965587 0.4053288 0.2134126
0.09669044 0.4081576 0.2129757
0.09682549 0.4109841 0.2125252
0.09696378 0.4138082 0.212061
0.09710527 0.4166298 0.2115832
0.0972499 0.419449 0.2110917
0.09739763 0.4222655 0.2105863
0.0975484 0.4250794 0.210067
0.09770216 0.4278904 0.2095337
0.09785886 0.4306986 0.2089862
0.09801845 0.4335038 0.2084245
0.09818088 0.4363059 0.2078484
0.09834609 0.4391048 0.2072578
0.09851404 0.4419004 0.2066525
0.09868467 0.4446927 0.2060323
0.09885792 0.4474813 0.2053971
0.09903374 0.4502663 0.2047467
0.09921206 0.4530475 0.2040809
0.09939283 0.4558247 0.2033995
0.09957598 0.4585979 0.2027022
0.09976145 0.4613668 0.2019888
0.09994916 0.4641313 0.2012592
0.100139 0.4668912 0.2005129
0.100331 0.4696464 0.1997498
0.100525 0.4723966 0.1989697
0.1007209 0.4751417 0.1981721
0.1009186 0.4778815 0.1973569
0.1011181 0.4806158 0.1965236
0.1013192 0.4833442 0.1956721
0.1015218 0.4860667 0.194802
0.1017258 0.488783 0.1939129
0.1019311 0.4914928 0.1930046
0.1021375 0.4941958 0.1920766
0.1023449 0.4968918 0.1911287
0.1025532 0.4995805 0.1901605
0.1027622 0.5022617 0.1891715
0.1029716 0.5049349 0.1881615
0.1031815 0.5075999 0.18713
0.1033914 0.5102563 0.1860767
0.1036013 0.5129038 0.1850012
0.1038109 0.5155421 0.1839031
0.1040201 0.5181707 0.182782
0.1042284 0.5207892 0.1816375
0.1044358 0.5233973 0.1804693
0.1046419 0.5259946 0.1792768
0.1048464 0.5285805 0.1780597
0.105049 0.5311546 0.1768176
0.1052494 0.5337166 0.1755502
0.1054473 0.5362658 0.1742569
0.1056423 0.5388018 0.1729375
0.105834 0.541324 0.1715915
0.1060221 0.5438319 0.1702185
0.1062061 0.546325 0.1688182
0.1063855 0.5488026 0.1673902
0.1065599 0.5512642 0.1659341
0.1067289 0.5537092 0.1644496
0.1068919 0.5561369 0.1629363
0.1070483 0.5585466 0.161394
0.1071977 0.5609377 0.1598222
0.1073394 0.5633095 0.1582207
0.1074728 0.5656612 0.1565893
0.1075974 0.5679922 0.1549276
0.1077123 0.5703016 0.1532355
0.107817 0.5725888 0.1515127
0.1079106 0.5748528 0.149759
0.1079925 0.577093 0.1479743
0.1080619 0.5793084 0.1461585
0.1081179 0.5814982 0.1443114
0.1081597 0.5836616 0.142433
0.1081864 0.5857976 0.1405234
0.1081971 0.5879054 0.1385824
0.108191 0.589984 0.1366103
0.1081669 0.5920325 0.134607
0.1081239 0.5940501 0.1325728
0.108061 0.5960356 0.130508
0.1079771 0.5979882 0.1284126
0.1078711 0.5999069 0.1262872
0.1077419 0.6017908 0.1241321
0.1075884 0.6036387 0.1219477
0.1074093 0.6054499 0.1197346
0.1072034 0.6072232 0.1174934
0.1069696 0.6089578 0.1152247
0.1067066 0.6106526 0.1129294
0.1064131 0.6123067 0.1106082
0.1060877 0.6139191 0.1082621
0.1057293 0.615489 0.1058921
0.1053365 0.6170154 0.1034992
0.1049079 0.6184975 0.1010846
0.1044422 0.6199343 0.09864974
0.103938 0.6213251 0.09619583
0.1033941 0.6226691 0.0937244
0.102809 0.6239655 0.09123701
0.1021815 0.6252136 0.08873533
0.1015102 0.6264129 0.08622113
0.1007938 0.6275627 0.08369628
0.100031 0.6286625 0.08116276
0.09922054 0.6297118 0.07862264
0.09836126 0.6307103 0.07607808
0.09745193 0.6316576 0.07353136
0.09649143 0.6325536 0.07098483
0.09547865 0.633398 0.06844095
0.09441257 0.6341909 0.06590226
0.09329222 0.6349323 0.0633714
0.0921167 0.6356223 0.06085105
0.09088519 0.6362612 0.05834401
0.08959695 0.6368495 0.05585312
0.08825132 0.6373874 0.05338128
0.08684775 0.6378758 0.05093146
0.08538578 0.6383152 0.04850667
0.08386505 0.6387066 0.04610993
0.08228534 0.6390509 0.04374433
0.0806465 0.6393492 0.04141294
0.07894855 0.6396027 0.03911886
0.07719161 0.6398127 0.03686517
0.07537592 0.6399809 0.03465493
0.07350188 0.6401086 0.0324912
0.07156999 0.6401977 0.03037697
0.06958091 0.64025 0.02831518
0.06753543 0.6402674 0.02630874
0.06543448 0.640252 0.02436043
0.06327913 0.640206 0.02247299
0.06107056 0.6401316 0.02064903
0.05881013 0.6400312 0.01889106
0.05649928 0.6399073 0.01720146
0.05413962 0.6397623 0.01558248
0.05173286 0.6395989 0.01403623
0.04928082 0.6394197 0.01256466
0.04678546 0.6392273 0.01116957
0.04424882 0.6390247 0.009852566
0.04167304 0.6388145 0.008615101
0.03906038 0.6385995 0.007458435
0.03641314 0.6383825 0.006383644
0.03373372 0.6381664 0.00539161
0.03102458 0.637954 0.004483023
0.02828822 0.637748 0.003658377
0.02552721 0.6375512 0.002917972
0.02274414 0.6373663 0.002261909
0.01994162 0.6371959 0.001690098
0.01712228 0.6370427 0.001202259
0.01428877 0.6369092 0.0007979233
0.01144371 0.6367978 0.0004764403
0.008589729 0.6367109 0.0002369836
0.005729413 0.6366508 7.855658e-05
0.00286533 0.6366198 0
0 0.6366198 0

LINES 349 1047
2 0 1
2 1 2
2 2 3
2 3 4
2 4 5
2 5 6
2 6 7
2 7 8
2 8 9
2 9 10
2 10 11
2 11 12
2 12 13
2 13 14
2 14 15
2 15 16
2 16 17
2 17 18
2 18 19
2 19 20
2 20 21
2 21 22
2 22 23
2 23 24
2 24 25
2 25 26
2 26 27
2 27 28
2 28 29
2 29 30
2 30 31
2 31 32
2 32 33
2 33 34
2 34 35
2 35 36
2 36 37
2 37 38
2 38 39
2 39 40
2 40 41
2 41 42
2 42 43
2 43 44
2 44 45
2 45 46
2 46 47
2 47 48
2 48 49
2 49 50
2 50 51
2 51 52
2 52 53
2 53 54
2 54 55
2 55 56
2 56 57
2 57 58
2 58 59
2 59 60
2 60 61
2 61 62
2 62 63
2 63 64
2 64 65
2 65 66
2 66 67
2 67 68
2 68 69
2 69 70
2 70 71
2 71 72
2 72 73
2 73 74
2 74 75
2 75 76
2 76 77
2 77 78
2 78 79
2 79 80
2 80 81
2 81 82
2 82 83
2 83 84
2 84 85
2 85 86
2 86 87
2 87 88
2 88 89
2 89 90
2 90 91
2 91 92
2 92 93
2 93 94
2 94 95
2 95 96
2 96 97
2 97 98
2 98 99
2 99 100
2 100 101
2 101 102
2 102 103
2 103 104
2 104 105
2 105 106
2 106 107
2 107 108
2 108 109
2 109 110
2 110 111
2 111 112
2 112 113
2 113 114
2 114 115
2 115 116
2 116 117
2 117 118
2 118 119
2 119 120
2 120 121
2 121 122
2 122 123
2 123 124
2 124 125
2 125 126
2 126 127
2 127 128
2 128 129
2 129 130
2 130 131
2 131 132
2 132 133
2 133 134
2 134 135
2 135 136
2 136 137
2 137 138
2 138 139
2 139 140
2 140 141
2 141 142
2 142 143
2 143 144
2 144 145
2 145 146
2 146 147
2 147 148
2 148 149
2 149 150
2 150 151
2 151 152
2 152 153
2 153 154
2 154 155
2 155 156
2 156 157
2 157 158
2 158 159
2 159 160
2 160 161
2 161 162
2 162 163
2 163 164
2 164 165
2 165 166
2 166 167
2 167 168
2 168 169
2 169 170
2 170 171
2 171 172
2 172 173
2 173 174
2 174 175
2 175 176
2 176 177
2 177 178
2 178 179
2 179 180
2 180 181
2 181 182
2 182 183
2 183 184
2 184 185
2 185 186
2 186 187
2 187 188
2 188 189
2 189 190
2 190 191
2 191 192
2 192 193
2 193 194
2 194 195
2 195 196
2 196 197
2 197 198
2 198 199
2 199 200
2 200 201
2 201 202
2 202 203
2 203 204
2 204 205
2 205 206
2 206 207
2 207 208
2 208 209
2 209 210
2 210 211
2 211 212
2 212 213
2 213 214
2 214 215
2 215 216
2 216 217
2 217 218
2 218 219
2 219 220
2 220 221
2 221 222
2 222 223
2 223 224
2 224 225
2 225 226
2 226 227
2 227 228
2 228 229
2 229 230
2 230 231
2 231 232
2 232 233
2 233 234
2 234 235
2 235 236
2 236 237
2 237 238
2 238 239
2 239 240
2 240 241
2 241 242
2 242 243
2 243 244
2 244 245
2 245 246
2 246 247
2 247 248
2 248 249
2 249 250
2 250 251
2 251 252
2 252 253
2 253 254
2 254 255
2 255 256
2 256 257
2 257 258
2 258 259
2 259 260
2 260 261
2 261 262
2 262 263
2 263 264
2 264 265
2 265 266
2 266 267
2 267 268
2 268 269
2 269 270
2 270 271
2 271 272
2 272 273
2 273 274
2 274 275
2 275 276
2 276 277
2 277 278
2 278 279
2 279 280
2 280 281
2 281 282
2 282 283
2 283 284
2 284 285
2 285 286
2 286 287
2 287 288
2 288 289
2 289 290
2 290 291
2 291 292
2 292 293
2 293 294
2 294 295
2 295 296
2 296 297
2 297 298
2 298 299
2 299 300
2 300 301
2 301 302
2 302 303
2 303 304
2 304 305
2 305 306
2 306 307
2 307 308
2 308 309
2 309 310
2 310 311
2 311 312
2 312 313
2 313 314
2 314 315
2 315 316
2 316 317
2 317 318
2 318 319
2 319 320
2 320 321
2 321 322
2 322 323
2 323 324
2 324 325
2 325 326
2 326 327
2 327 328
2 328 329
2 329 330
2 330 331
2 331 332
2 332 333
2 333 334
2 334 335
2 335 336
2 336 337
2 337 338
2 338 339
2 339 340
2 340 341
2 341 342
2 342 343
2 343 344
2 344 345
2 345 346
2 346 347
2 347 348
2 348 349


POINT_DATA 350
SCALARS a FLOAT 1
LOOKUP_TABLE default
0.0005894628
0.0005894628
0.0005894628
0.0005894628
0.0005894628
0.0005894628
0.0005894628
0.0005894628
0.0005894628
0.0005894628
0.0005894628
0.0005894628
0.0005894628
0.0005894628
0.0005894628
0.0005894628
0.0005894628
0.0005894628
0.0005894628
0.0005894628
0.0005894628
0.0005894628
0.0005894628
0.0005894628
0.0005894628
0.0005894628
0.0005894628
0.0005894628
0.0005894628
0.0005894628
0.0005894628
0.0005894628
0.0005894628
0.0005894628
0.0005894628
0.0005894628
0.0005894628
0.0005894628
0.0005894628
0.0005894628
0.0005894628
0.0005894628
0.0005894628
0.0005894628
0.0005894628
0.0005894628
0.0005894628
0.0005894628
0.0005894628
0.0005894628
0.0005894628
0.0005894628
0.0005894628
0.0005894628
0.0005894628
0.0005894628
0.0005894628
0.0005894628
0.0005894628
0.0005894628
0.0005894628
0.0005894628
0.0005894628
0.0005894628
0.0005894628
0.0005894628
0.0005894628
0.0005894628
0.0005894628
0.0005894628
0.0005894628
0.0005894628
0.0005894628
0.0005894628
0.0005894628
0.0005894628
0.0005894628
0.0005894628
0.0005894628
0.0005894628
0.0005894628
0.0005894628
0.0005894628
0.0005894628
0.0005894628
0.0005894628
0.0005894628
0.0005894628
0.0005894628
0.0005894628
0.0005894628
0.0005894628
0.0005894628
0.0005894628
0.0005894628
0.0005894628
0.0005894628
0.0005894628
0.0005894628
0.0005894628
0.0005894628
0.0005894628
0.0005894628
0.0005894628
0.0005894628
0.0005894628
0.0005894628
0.0005894628
0.0005894628
0.0005894628
0.0005894628
0.0005894628
0.0005894628
0.0005894628
0.0005894628
0.0005894628
0.0005894628
0.0005894628
0.0005894628
0.0005894628
0.0005894628
0.0005894628
0.0005894628
0.0005894628
0.0005894628
0.0005894628
0.0005894628
0.0005894628
0.0005894628
0.0005894628
0.0005894628
0.0005894628
0.0005894628
0.0005894628
0.0005894628
0.0005894628
0.0005894628
0.0005894628
0.0005894628
0.0005894628
0.0005894628
0.0005894628
0.0005894628
0.0005894628
0.0005894628
0.0005894628
0.0005894628
0.0005894628
0.0005894628
0.0005894628
0.0005894628
0.0005894628
0.0005894628
0.0005894628
0.0005894628
0.0005894628
0.0005894628
0.0005894628
0.0005894628
0.0005894628
0.0005894628
0.0005894628
0.0005894628
0.0005894628
0.0005894628
0.0005894628
0.0005894628
0.0005894628
0.0005894628
0.0005894628
0.0005894628
0.0005894628
0.0005894628
0.0005894628
0.0005894628
0.0005894628
0.0005894628
0.0005894628
0.0005894628
0.0005894628
0.0005894628
0.0005894628
0.0005894628
0.0005894628
0.0005894628
0.0005894628
0.0005894628
0.0005894628
0.0005894628
0.0005894628
0.0005894628
0.0005894628
0.0005894628
0.0005894628
0.0005894628
0.0005894628
0.0005894628
0.0005894628
0.0005894628
0.0005894628
0.0005894628
0.0005894628
0.0005894628
0.0005894628
0.0005894628
0.0005894628
0.0005894628
0.0005894628
0.0005894628
0.0005894628
0.0005894628
0.0005894628
0.0005894628
0.0005894628
0.0005894628
0.0005894628
0.0005894628
0.0005894628
0.0005894628
0.0005894628
0.0005894628
0.0005894628
0.0005894628
0.0005894628
0.0005894628
0.0005894628
0.0005894628
0.0005894628
0.0005894628
0.0005894628
0.0005894628
0.0005894628
0.0005894628
0.0005894628
0.0005894628
0.0005894628
0.0005894628
0.0005894628
0.0005894628
0.0005894628
0.0005894628
0.0005894628
0.0005894628
0.0005894628
0.0005894628
0.0005894628
0.0005894628
0.0005894628
0.0005894628
0.0005894628
0.0005894628
0.0005894628
0.0005894628
0.0005894628
0.0005894628
0.0005894628
0.0005894628
0.0005894628
0.0005894628
0.0005894628
0.0005894628
0.0005894628
0.0005894628
0.0005894628
0.0005894628
0.0005894628
0.0005894628
0.0005894628
0.0005894628
0.0005894628
0.0005894628
0.0005894628
0.0005894628
0.0005894628
0.0005894628
0.0005894628
0.0005894628
0.0005894628
0.0005894628
0.0005894628
0.0005894628
0.0005894628
0.0005894628
0.0005894628
0.0005894628
0.0005894628
0.0005894628
0.0005894628
0.0005894628
0.0005894628
0.0005894628
0.0005894628
0.0005894628
0.0005894628
0.0005894628
0.0005894628
0.0005894628
0.0005894628
0.0005894628
0.0005894628
0.0005894628
0.0005894628
0.0005894628
0.0005894628
0.0005894628
0.0005894628
0.0005894628
0.0005894628
0.0005894628
0.0005894628
0.0005894628
0.0005894628
0.0005894628
0.0005894628
0.0005894628
0.0005894628
0.0005894628
0.0005894628
0.0005894628
0.0005894628
0.0005894628
0.0005894628
0.0005894628
0.0005894628
0.0005894628
0.0005894628
0.0005894628
0.0005894628
0.0005894628
0.0005894628
0.0005894628
0.0005894628
0.0005894628
0.0005894628
0.0005894628
0.0005894628
0.0005894628
0.0005894628
0.0005894628
0.0005894628
0.0005894628
0.0005894628
0.0005894628
0.0005894628
0.0005894628
0.0005894628
0.0005894628
0.0005894628
0.0005894628
0.0005894628


SCALARS b FLOAT 1
LOOKUP_TABLE default
0.04420971
0.04420971
0.04420971
0.04420971
0.04420971
0.04420971
0.04420971
0.04420971
0.04420971
0.04420971
0.04420971
0.04420971
0.04420971
0.04420971
0.04420971
0.04420971
0.04420971
0.04420971
0.04420971
0.04420971
0.04420971
0.04420971
0.04420971
0.04420971
0.04420971
0.04420971
0.04420971
0.04420971
0.04420971
0.04420971
0.04420971
0.04420971
0.04420971
0.04420971
0.04420971
0.04420971
0.04420971
0.04420971
0.04420971
0.04420971
0.04420971
0.04420971
0.04420971
0.04420971
0.04420971
0.04420971
0.04420971
0.04420971
0.04420971
0.04420971
0.04420971
0.04420971
0.04420971
0.04420971
0.04420971
0.04420971
0.04420971
0.04420971
0.04420971
0.04420971
0.04420971
0.04420971
0.04420971
0.04420971
0.04420971
0.04420971
0.04420971
0.04420971
0.04420971
0.04420971
0.04420971
0.04420971
0.04420971
0.04420971
0.04420971
0.04420971
0.04420971
0.04420971
0.04420971
0.04420971
0.04420971
0.04420971
0.04420971
0.04420971
0.04420971
0.04420971
0.04420971
0.04420971
0.04420971
0.04420971
0.04420971
0.04420971
0.04420971
0.04420971
0.04420971
0.04420971
0.04420971
0.04420971
0.04420971
0.04420971
0.04420971
0.04420971
0.04420971
0.04420971
0.04420971
0.04420971
0.04420971
0.04420971
0.04420971
0.04420971
0.04420971
0.04420971
0.04420971
0.04420971
0.04420971
0.04420971
0.04420971
0.04420971
0.04420971
0.04420971
0.04420971
0.04420971
0.04420971
0.04420971
0.04420971
0.04420971
0.04420971
0.04420971
0.04420971
0.04420971
0.04420971
0.04420971
0.04420971
0.04420971
0.04420971
0.04420971
0.04420971
0.04420971
0.04420971
0.04420971
0.04420971
0.04420971
0.04420971
0.04420971
0.04420971
0.04420971
0.04420971
0.04420971
0.04420971
0.04420971
0.04420971
0.04420971
0.04420971
0.04420971
0.04420971
0.04420971
0.04420971
0.04420971
0.04420971
0.04420971
0.04420971
0.04420971
0.04420971
0.04420971
0.04420971
0.04420971
0.04420971
0.04420971
0.04420971
0.04420971
0.04420971
0.04420971
0.04420971
0.04420971
0.04420971
0.04420971
0.04420971
0.04420971
0.04420971
0.04420971
0.04420971
0.04420971
0.04420971
0.04420971
0.04420971
0.04420971
0.04420971
0.04420971
0.04420971
0.04420971
0.04420971
0.04420971
0.04420971
0.04420971
0.04420971
0.04420971
0.04420971
0.04420971
0.04420971
0.04420971
0.04420971
0.04420971
0.04420971
0.04420971
0.04420971
0.04420971
0.04420971
0.04420971
0.04420971
0.04420971
0.04420971
0.04420971
0.04420971
0.04420971
0.04420971
0.04420971
0.04420971
0.04420971
0.04420971
0.04420971
0.04420971
0.04420971
0.04420971
0.04420971
0.04420971
0.04420971
0.04420971
0.04420971
0.04420971
0.04420971
0.04420971
0.04420971
0.04420971
0.04420971
0.04420971
0.04420971
0.04420971
0.04420971
0.04420971
0.04420971
0.04420971
0.04420971
0.04420971
0.04420971
0.04420971
0.04420971
0.04420971
0.04420971
0.04420971
0.04420971
0.04420971
0.04420971
0.04420971
0.04420971
0.04420971
0.04420971
0.04420971
0.04420971
0.04420971
0.04420971
0.04420971
0.04420971
0.04420971
0.04420971
0.04420971
0.04420971
0.04420971
0.04420971
0.04420971
0.04420971
0.04420971
0.04420971
0.04420971
0.04420971
0.04420971
0.04420971
0.04420971
0.04420971
0.04420971
0.04420971
0.04420971
0.04420971
0.04420971
0.04420971
0.04420971
0.04420971
0.04420971
0.04420971
0.04420971
0.04420971
0.04420971
0.04420971
0.04420971
0.04420971
0.04420971
0.04420971
0.04420971
0.04420971
0.04420971
0.04420971
0.04420971
0.04420971
0.04420971
0.04420971
0.04420971
0.04420971
0.04420971
0.04420971
0.04420971
0.04420971
0.04420971
0.04420971
0.04420971
0.04420971
0.04420971
0.04420971
0.04420971
0.04420971
0.04420971
0.04420971
0.04420971
0.04420971
0.04420971
0.04420971
0.04420971
0.04420971
0.04420971
0.04420971
0.04420971
0.04420971
0.04420971
0.04420971
0.04420971
0.04420971
0.04420971
0.04420971
0.04420971
0.04420971
0.04420971
0.04420971
0.04420971
0.04420971
0.04420971
0.04420971
0.04420971
0.04420971
0.04420971
0.04420971
0.04420971
0.04420971


VECTORS d1 FLOAT
0 -0.3809413 0.9245992
-0.02948035 -0.3543651 0.9346423
-0.05910732 -0.327053 0.9431557
-0.08881761 -0.2990521 0.9500943
-0.1185461 -0.2704132 0.955418
-0.1482262 -0.2411905 0.9590913
-0.1777904 -0.2114414 0.9610843
-0.2071701 -0.1812263 0.9613728
-0.2362965 -0.1506084 0.9599381
-0.2651008 -0.1196531 0.9567678
-0.2935145 -0.08842782 0.951856
-0.3214699 -0.0570018 0.9452026
-0.3489003 -0.02544553 0.9368143
-0.3757407 0.006169558 0.9267043
-0.4019281 0.0377715 0.9148919
-0.4274014 0.06928822 0.9014029
-0.4521025 0.1006479 0.8862693
-0.4759761 0.1317794 0.8695292
-0.49897 0.1626128 0.8512262
-0.5210358 0.1930793 0.8314097
-0.5421287 0.2231125 0.8101341
-0.562208 0.2526476 0.7874588
-0.581237 0.2816228 0.7634475
-0.5991835 0.309979 0.7381681
-0.6160196 0.3376602 0.711692
-0.631722 0.3646139 0.6840936
-0.6462719 0.390791 0.6554503
-0.6596551 0.4161463 0.6258414
-0.6718617 0.4406388 0.595348
-0.6828866 0.4642313 0.5640525
-0.6927287 0.4868907 0.5320379
-0.7013914 0.5085884 0.4993876
-0.7088819 0.5292999 0.4661847
-0.7152115 0.5490047 0.4325117
-0.7203951 0.5676868 0.3984503
-0.7244511 0.5853341 0.3640805
-0.7274011 0.6019387 0.3294807
-0.7292697 0.6174963 0.2947271
-0.7300843 0.6320064 0.2598937
-0.7298748 0.6454723 0.2250516
-0.7286732 0.6579005 0.1902692
-0.7265134 0.6693005 0.1556118
-0.7234313 0.6796852 0.1211412
-0.7194638 0.68907 0.08691629
-0.7146492 0.6974728 0.05299203
-0.7090268 0.704914 0.01942004
-0.7026365 0.7114161 -0.01375172
-0.6955185 0.7170033 -0.04647891
-0.6877135 0.7217015 -0.07872081
-0.6792622 0.7255383 -0.1104403
-0.670205 0.7285422 -0.1416038
-0.660582 0.7307428 -0.1721811
-0.6504331 0.7321707 -0.2021455
-0.6397974 0.7328569 -0.2314736
-0.6287131 0.7328332 -0.2601451
-0.6172177 0.7321312 -0.2881426
-0.6053479 0.7307831 -0.315452
-0.593139 0.728821 -0.3420616
-0.5806254 0.7262766 -0.3679625
-0.5678403 0.7231817 -0.3931484
-0.5548155 0.7195676 -0.417615
-0.5415818 0.715465 -0.4413604
-0.5281684 0.7109042 -0.4643848
-0.5146034 0.7059149 -0.4866902
-0.5009135 0.7005261 -0.5082803
-0.4871238 0.6947658 -0.5291605
-0.4732585 0.6886616 -0.5493374
-0.4593402 0.6822398 -0.5688193
-0.4453901 0.6755263 -0.5876154
-0.4314285 0.6685456 -0.6057361
-0.417474 0.6613217 -0.6231926
-0.4035441 0.6538775 -0.6399972
-0.3896554 0.6462347 -0.6561626
-0.3758229 0.6384145 -0.6717024
-0.3620607 0.6304368 -0.6866305
-0.3483818 0.6223208 -0.7009615
-0.3347981 0.6140845 -0.7147101
-0.3213206 0.6057452 -0.7278914
-0.3079592 0.5973193 -0.7405207
-0.2947229 0.5888221 -0.7526134
-0.28162 0.5802682 -0.7641852
-0.2686579 0.5716714 -0.7752514
-0.255843 0.5630445 -0.7858278
-0.2431811 0.5543997 -0.7959296
-0.2306775 0.5457483 -0.8055723
-0.2183366 0.5371009 -0.814771
-0.2061621 0.5284673 -0.8235408
-0.1941573 0.5198568 -0.8318966
-0.1823249 0.5112778 -0.8398528
-0.1706671 0.5027382 -0.8474238
-0.1591856 0.4942452 -0.8546237
-0.1478816 0.4858057 -0.8614661
-0.1367559 0.4774255 -0.8679647
-0.125809 0.4691104 -0.8741324
-0.1150409 0.4608654 -0.8799822
-0.1044515 0.452695 -0.8855265
-0.09404017 0.4446034 -0.8907773
-0.08380606 0.4365941 -0.8957467
-0.0737481 0.4286705 -0.9004459
-0.06386498 0.4208354 -0.9048861
-0.05415516 0.4130912 -0.9090781
-0.04461693 0.4054399 -0.9130322
-0.03524839 0.3978834 -0.9167586
-0.02604748 0.3904229 -0.9202671
-0.01701203 0.3830596 -0.9235669
-0.008139721 0.3757943 -0.9266673
0.0005718671 0.3686274 -0.929577
0.00912524 0.3615592 -0.9323045
0.01752299 0.3545897 -0.9348578
0.02576776 0.3477184 -0.9372449
0.03386227 0.3409449 -0.9394732
0.04180925 0.3342685 -0.9415501
0.0496115 0.3276882 -0.9434825
0.05727181 0.3212028 -0.9452771
0.06479298 0.3148108 -0.9469403
0.07217782 0.3085109 -0.9484785
0.07942912 0.3023012 -0.9498974
0.08654967 0.2961798 -0.9512028
0.09354221 0.2901447 -0.9524001
0.1004094 0.2841936 -0.9534946
0.1071541 0.2783242 -0.9544913
0.1137786 0.272534 -0.955395
0.1202857 0.2668204 -0.9562103
0.1266778 0.2611806 -0.9569417
0.1329573 0.2556119 -0.9575933
0.1391266 0.2501112 -0.9581692
0.1451878 0.2446755 -0.9586732
0.1511431 0.2393018 -0.9591092
0.1569944 0.2339868 -0.9594805
0.1627439 0.2287274 -0.9597907
0.1683931 0.2235202 -0.960043
0.1739438 0.2183618 -0.9602404
0.1793976 0.213249 -0.960386
0.1847558 0.2081784 -0.9604827
0.1900198 0.2031464 -0.9605332
0.1951906 0.1981498 -0.9605401
0.2002692 0.193185 -0.960506
0.2052566 0.1882487 -0.9604333
0.2101532 0.1833374 -0.9603244
0.2149597 0.1784478 -0.9601816
0.2196763 0.1735766 -0.960007
0.2243033 0.1687203 -0.9598028
0.2288405 0.1638757 -0.9595711
0.2332878 0.1590396 -0.9593139
0.2376447 0.1542087 -0.9590332
0.2419106 0.1493798 -0.9587309
0.2460848 0.1445499 -0.9584089
0.250166 0.139716 -0.9580691
0.2541531 0.1348749 -0.9577134
0.2580446 0.1300239 -0.9573436
0.2618385 0.1251601 -0.9569616
0.2655329 0.1202807 -0.9565693
0.2691254 0.115383 -0.9561685
0.2726134 0.1104645 -0.9557612
0.275994 0.1055226 -0.9553493
0.2792638 0.1005552 -0.9549348
0.2824191 0.09555987 -0.9545196
0.2854561 0.09053466 -0.954106
0.2883703 0.0854777 -0.953696
0.2911568 0.08038731 -0.953292
0.2938106 0.07526207 -0.9528961
0.2963259 0.07010084 -0.9525108
0.2986968 0.06490277 -0.9521386
0.3009168 0.05966741 -0.9517819
0.3029792 0.05439469 -0.9514436
0.3048767 0.04908504 -0.9511261
0.3066021 0.04373939 -0.9508323
0.3081479 0.0383593 -0.9505648
0.3095067 0.03294693 -0.9503263
0.3106712 0.02750512 -0.9501194
0.3116347 0.0220374 -0.9499464
0.312391 0.01654799 -0.9498095
0.3129352 0.01104167 -0.9497103
0.3132633 0.005523777 -0.9496502
0.313373 -1.349066e-09 -0.9496301
0.3132633 -0.005523779 -0.9496502
0.3129352 -0.01104167 -0.9497103
0.312391 -0.01654799 -0.9498095
0.3116347 -0.02203741 -0.9499464
0.3106712 -0.02750512 -0.9501194
0.3095067 -0.03294693 -0.9503263
0.3081479 -0.0383593 -0.9505648
0.3066021 -0.0437394 -0.9508323
0.3048767 -0.04908504 -0.9511261
0.3029792 -0.05439469 -0.9514436
0.3009168 -0.05966741 -0.9517819
0.2986968 -0.06490278 -0.9521386
0.2963259 -0.07010084 -0.9525108
0.2938106 -0.07526207 -0.9528961
0.2911568 -0.08038731 -0.953292
0.2883703 -0.0854777 -0.953696
0.2854561 -0.09053466 -0.954106
0.2824191 -0.09555987 -0.9545196
0.2792638 -0.1005552 -0.9549348
0.275994 -0.1055226 -0.9553493
0.2726134 -0.1104645 -0.9557612
0.2691254 -0.115383 -0.9561685
0.2655329 -0.1202807 -0.9565693
0.2618385 -0.1251601 -0.9569616
0.2580446 -0.1300239 -0.9573436
0.2541531 -0.1348749 -0.9577134
0.250166 -0.139716 -0.9580691
0.2460848 -0.1445499 -0.9584089
0.2419106 -0.1493798 -0.9587309
0.2376447 -0.1542087 -0.9590332
0.2332878 -0.1590396 -0.9593139
0.2288405 -0.1638757 -0.9595711
0.2243033 -0.1687203 -0.9598028
0.2196763 -0.1735766 -0.960007
0.2149597 -0.1784478 -0.9601816
0.2101532 -0.1833374 -0.9603244
0.2052566 -0.1882487 -0.9604333
0.2002692 -0.193185 -0.960506
0.1951906 -0.1981498 -0.9605401
0.1900198 -0.2031464 -0.9605332
0.1847558 -0.2081784 -0.9604827
0.1793976 -0.213249 -0.960386
0.1739438 -0.2183618 -0.9602404
0.1683931 -0.2235202 -0.960043
0.1627439 -0.2287274 -0.9597907
0.1569944 -0.2339868 -0.9594805
0.1511431 -0.2393018 -0.9591092
0.1451878 -0.2446755 -0.9586732
0.1391266 -0.2501112 -0.9581692
0.1329574 -0.2556119 -0.9575933
0.1266778 -0.2611806 -0.9569417
0.1202857 -0.2668204 -0.9562103
0.1137786 -0.272534 -0.955395
0.1071541 -0.2783242 -0.9544913