# vtk DataFile Version 2.0
Written badly by Kevin Korner
ASCII
DATASET POLYDATA
POINTS 350 FLOAT
0 0 0
0.00286533 0 0
0.005729052 -4.821386e-05 8.297014e-05
0.00858789 -0.0001424775 0.0002511135
0.01143848 -0.000280436 0.0005064516
0.0142774 -0.0004595474 0.0008508074
0.01710115 -0.0006770886 0.00128579
0.01990621 -0.0009301625 0.001812781
0.02268902 -0.001215707 0.002432916
0.02544601 -0.001530503 0.00314708
0.02817362 -0.00187119 0.003955888
0.03086832 -0.002234277 0.004859684
0.03352663 -0.002616154 0.005858526
0.03614511 -0.003013114 0.006952185
0.03872042 -0.003421364 0.008140143
0.0412493 -0.003837046 0.009421585
0.04372861 -0.00425625 0.01079541
0.04615535 -0.004675042 0.01226022
0.04852665 -0.005089474 0.01381433
0.05083982 -0.005495608 0.01545581
0.05309232 -0.005889536 0.01718242
0.05528181 -0.006267395 0.01899169
0.05740615 -0.00662539 0.0208809
0.05946339 -0.006959809 0.02284712
0.06145182 -0.007267043 0.02488719
0.06336993 -0.0075436 0.02699776
0.06521642 -0.00778612 0.02917532
0.06699025 -0.007991392 0.03141619
0.06869058 -0.008156362 0.03371658
0.0703168 -0.008278146 0.03607257
0.07186853 -0.008354042 0.03848015
0.07334561 -0.008381535 0.04093527
0.07474808 -0.008358302 0.0434338
0.0760762 -0.008282222 0.0459716
0.07733041 -0.008151373 0.04854452
0.07851137 -0.00796404 0.05114844
0.07961988 -0.007718708 0.05377924
0.08065695 -0.007414067 0.05643288
0.08162371 -0.007049006 0.05910537
0.08252145 -0.006622612 0.06179282
0.0833516 -0.00613416 0.06449141
0.08411569 -0.005583113 0.06719744
0.08481539 -0.004969113 0.06990734
0.08545243 -0.004291971 0.07261764
0.08602865 -0.003551663 0.07532505
0.08654594 -0.002748319 0.07802637
0.08700626 -0.001882214 0.0807186
0.0874116 -0.0009537582 0.08339886
0.08776403 3.651036e-05 0.08606443
0.08806559 0.001087938 0.08871276
0.08831838 0.002199763 0.09134146
0.08852447 0.003371127 0.09394829
0.08868597 0.004601083 0.09653116
0.08880495 0.005888607 0.09908816
0.08888347 0.007232604 0.1016175
0.08892356 0.008631916 0.1041176
0.08892724 0.01008534 0.1065869
0.08889648 0.01159161 0.1090242
0.08883322 0.01314945 0.1114282
0.08873934 0.01475753 0.1137979
0.08861668 0.01641451 0.1161323
0.08846705 0.01811902 0.1184307
0.08829218 0.0198697 0.1206922
0.08809375 0.02166517 0.1229164
0.0878734 0.02350405 0.1251028
0.08763269 0.02538495 0.1272509
0.08737315 0.02730652 0.1293604
0.08709621 0.02926739 0.1314313
0.08680328 0.03126623 0.1334633
0.08649569 0.03330171 0.1354563
0.08617472 0.03537253 0.1374105
0.08584159 0.0374774 0.1393259
0.08549746 0.03961507 0.1412026
0.08514344 0.0417843 0.1430409
0.08478057 0.0439839 0.1448409
0.08440985 0.04621269 0.1466031
0.08403223 0.04846952 0.1483277
0.0836486 0.05075329 0.1500151
0.0832598 0.05306291 0.1516657
0.08286664 0.05539734 0.15328
0.08246985 0.05775554 0.1548585
0.08207014 0.06013655 0.1564016
0.08166818 0.06253939 0.1579099
0.08126458 0.06496315 0.1593838
0.08085992 0.06740695 0.160824
0.08045476 0.06986991 0.1622311
0.08004959 0.07235121 0.1636055
0.07964488 0.07485006 0.164948
0.07924108 0.07736567 0.166259
0.07883858 0.07989732 0.1675391
0.07843778 0.08244429 0.1687891
0.07803901 0.0850059 0.1700094
0.07764259 0.0875815 0.1712008
0.07724882 0.09017044 0.1723637
0.07685798 0.09277214 0.1734989
0.0764703 0.095386 0.1746068
0.07608603 0.09801148 0.1756881
0.07570535 0.1006481 0.1767435
0.07532846 0.1032952 0.1777734
0.07495553 0.1059524 0.1787784
0.0745867 0.1086193 0.1797592
0.07422212 0.1112953 0.1807163
0.0738619 0.1139801 0.1816502
0.07350615 0.1166733 0.1825616
0.07315496 0.1193744 0.1834508
0.07280841 0.1220831 0.1843186
0.07246658 0.124799 0.1851653
0.07212952 0.1275219 0.1859915
0.07179728 0.1302513 0.1867977
0.07146991 0.132987 0.1875844
0.07114743 0.1357287 0.188352
0.07082987 0.1384761 0.189101
0.07051725 0.1412289 0.1898319
0.07020958 0.143987 0.1905451
0.06990687 0.14675 0.191241
0.06960911 0.1495177 0.1919201
0.06931632 0.15229 0.1925827
0.06902847 0.1550665 0.1932293
0.06874556 0.1578472 0.1938601
0.06846758 0.1606318 0.1944757
0.06819451 0.1634201 0.1950762
0.06792633 0.166212 0.1956622
0.06766303 0.1690074 0.1962338
0.06740458 0.171806 0.1967914
0.06715097 0.1746078 0.1973354
0.06690217 0.1774126 0.1978659
0.06665816 0.1802202 0.1983833
0.06641892 0.1830306 0.1988879
0.06618443 0.1858436 0.1993798
0.06595468 0.1886592 0.1998593
0.06572963 0.1914772 0.2003267
0.06550928 0.1942975 0.2007822
0.06529361 0.19712 0.2012259
0.0650826 0.1999447 0.201658
0.06487625 0.2027714 0.2020787
0.06467454 0.2056002 0.2024883
0.06447746 0.2084308 0.2028868
0.06428501 0.2112633 0.2032744
0.06409718 0.2140975 0.2036511
0.06391397 0.2169334 0.2040173
0.06373539 0.219771 0.2043729
0.06356144 0.2226101 0.204718
0.06339211 0.2254508 0.2050528
0.06322743 0.2282929 0.2053773
0.0630674 0.2311365 0.2056916
0.06291204 0.2339814 0.2059958
0.06276136 0.2368276 0.2062899
0.06261539 0.239675 0.206574
0.06247414 0.2425237 0.2068481
0.06233763 0.2453736 0.2071123
0.0622059 0.2482246 0.2073665
0.06207898 0.2510767 0.2076108
0.06195689 0.2539298 0.2078452
0.06183967 0.2567839 0.2080698
0.06172736 0.259639 0.2082844
0.06161998 0.2624949 0.2084891
0.06151759 0.2653518 0.2086839
0.06142022 0.2682095 0.2088687
0.06132791 0.271068 0.2090436
0.06124071 0.2739273 0.2092086
0.06115867 0.2767872 0.2093634
0.06108182 0.2796479 0.2095083
0.06101021 0.2825091 0.209643
0.06094389 0.285371 0.2097676
0.06088291 0.2882334 0.209882
0.0608273 0.2910963 0.2099862
0.06077711 0.2939596 0.2100801
0.06073238 0.2968234 0.2101638
0.06069315 0.2996875 0.2102371
0.06065945 0.3025519 0.2102999
0.06063132 0.3054166 0.2103524
0.06060878 0.3082816 0.2103944
0.06059185 0.3111467 0.210426
0.06058056 0.3140119 0.210447
0.06057491 0.3168772 0.2104575
0.06057491 0.3197426 0.2104575
0.06058056 0.3226079 0.210447
0.06059185 0.3254731 0.210426
0.06060878 0.3283382 0.2103944
0.06063132 0.3312031 0.2103524
0.06065945 0.3340678 0.2102999
0.06069315 0.3369323 0.2102371
0.06073238 0.3397964 0.2101638
0.06077711 0.3426602 0.2100801
0.0608273 0.3455235 0.2099862
0.06088291 0.3483864 0.209882
0.06094389 0.3512488 0.2097676
0.06101021 0.3541106 0.209643
0.06108182 0.3569719 0.2095083
0.06115867 0.3598325 0.2093634
0.06124071 0.3626925 0.2092086
0.06132791 0.3655518 0.2090436
0.06142022 0.3684103 0.2088687
0.06151759 0.371268 0.2086839
0.06161998 0.3741248 0.2084891
0.06172736 0.3769808 0.2082844
0.06183967 0.3798359 0.2080698
0.06195689 0.38269 0.2078452
0.06207898 0.3855431 0.2076108
0.0622059 0.3883952 0.2073665
0.06233763 0.3912462 0.2071123
0.06247414 0.394096 0.2068481
0.06261539 0.3969447 0.206574
0.06276136 0.3997922 0.2062899
0.06291204 0.4026384 0.2059958
0.0630674 0.4054833 0.2056916
0.06322743 0.4083268 0.2053773
0.06339211 0.411169 0.2050528
0.06356144 0.4140096 0.204718
0.06373539 0.4168488 0.2043729
0.06391397 0.4196863 0.2040173
0.06409718 0.4225223 0.2036511
0.06428501 0.4253565 0.2032744
0.06447746 0.428189 0.2028868
0.06467454 0.4310196 0.2024883
0.06487625 0.4338483 0.2020787
0.0650826 0.4366751 0.201658
0.06529361 0.4394998 0.2012259
0.06550928 0.4423223 0.2007822
0.06572963 0.4451426 0.2003267
0.06595468 0.4479606 0.1998593
0.06618443 0.4507761 0.1993798
0.06641892 0.4535892 0.1988879
0.06665816 0.4563996 0.1983833
0.06690217 0.4592072 0.1978659
0.06715097 0.462012 0.1973354
0.06740458 0.4648138 0.1967914
0.06766303 0.4676124 0.1962338
0.06792633 0.4704077 0.1956622
0.06819451 0.4731997 0.1950762
0.06846758 0.475988 0.1944757
0.06874556 0.4787726 0.1938601
0.06902847 0.4815533 0.1932293
0.06931632 0.4843298 0.1925827
0.06960912 0.4871021 0.1919201
0.06990687 0.4898698 0.191241
0.07020958 0.4926328 0.1905451
0.07051725 0.4953908 0.1898319
0.07082987 0.4981437 0.189101
0.07114743 0.5008911 0.188352
0.07146991 0.5036328 0.1875844
0.07179728 0.5063685 0.1867977
0.07212952 0.5090979 0.1859915
0.07246658 0.5118208 0.1851653
0.07280841 0.5145367 0.1843186
0.07315496 0.5172454 0.1834508
0.07350615 0.5199465 0.1825616
0.0738619 0.5226397 0.1816502
0.07422212 0.5253244 0.1807163
0.0745867 0.5280005 0.1797592
0.07495553 0.5306673 0.1787784
0.07532846 0.5333246 0.1777734
0.07570535 0.5359717 0.1767435
0.07608603 0.5386083 0.1756881
0.0764703 0.5412338 0.1746068
0.07685798 0.5438476 0.1734989
0.07724882 0.5464493 0.1723637
0.07764259 0.5490383 0.1712008
0.07803901 0.5516139 0.1700094
0.07843778 0.5541755 0.1687891
0.07883858 0.5567224 0.1675391
0.07924108 0.5592541 0.166259
0.07964488 0.5617697 0.164948
0.08004959 0.5642686 0.1636055
0.08045476 0.5667499 0.1622311
0.08085992 0.5692128 0.160824
0.08126458 0.5716566 0.1593838
0.08166818 0.5740804 0.1579099
0.08207014 0.5764832 0.1564016
0.08246985 0.5788642 0.1548585
0.08286664 0.5812224 0.15328
0.0832598 0.5835569 0.1516657
0.0836486 0.5858665 0.1500151
0.08403223 0.5881502 0.1483277
0.08440985 0.5904071 0.1466031
0.08478057 0.5926359 0.1448409
0.08514344 0.5948355 0.1430409
0.08549746 0.5970047 0.1412026
0.08584159 0.5991424 0.1393259
0.08617472 0.6012472 0.1374105
0.08649569 0.6033181 0.1354563
0.08680328 0.6053535 0.1334633
0.08709621 0.6073524 0.1314313
0.08737315 0.6093133 0.1293604
0.08763269 0.6112348 0.1272509
0.0878734 0.6131157 0.1251028
0.08809375 0.6149546 0.1229164
0.08829218 0.6167501 0.1206922
0.08846705 0.6185008 0.1184307
0.08861668 0.6202053 0.1161323
0.08873934 0.6218622 0.1137979
0.08883322 0.6234703 0.1114282
0.08889648 0.6250282 0.1090242
0.08892724 0.6265344 0.1065869
0.08892356 0.6279879 0.1041176
0.08888347 0.6293872 0.1016175
0.08880495 0.6307312 0.09908816
0.08868597 0.6320187 0.09653116
0.08852447 0.6332486 0.09394829
0.08831838 0.63442 0.09134146
0.08806559 0.6355318 0.08871276
0.08776403 0.6365833 0.08606443
0.0874116 0.6375735 0.08339886
0.08700626 0.638502 0.0807186
0.08654594 0.6393681 0.07802637
0.08602865 0.6401714 0.07532505
0.08545243 0.6409117 0.07261764
0.08481539 0.6415889 0.06990734
0.08411569 0.6422029 0.06719744
0.0833516 0.6427539 0.06449141
0.08252145 0.6432424 0.06179282
0.08162371 0.6436688 0.05910537
0.08065695 0.6440338 0.05643288
0.07961988 0.6443385 0.05377924
0.07851137 0.6445838 0.05114844
0.07733041 0.6447711 0.04854452
0.0760762 0.644902 0.0459716
0.07474808 0.6449781 0.0434338
0.07334561 0.6450013 0.04093527
0.07186853 0.6449738 0.03848015
0.0703168 0.6448979 0.03607257
0.06869058 0.6447761 0.03371658
0.06699025 0.6446112 0.03141619
0.06521642 0.6444059 0.02917532
0.06336993 0.6441634 0.02699776
0.06145182 0.6438868 0.02488719
0.05946339 0.6435796 0.02284712
0.05740615 0.6432452 0.0208809
0.05528181 0.6428872 0.01899169
0.05309232 0.6425093 0.01718242
0.05083982 0.6421154 0.01545581
0.04852665 0.6417092 0.01381433
0.04615535 0.6412948 0.01226022
0.04372861 0.640876 0.01079541
0.0412493 0.6404568 0.009421585
0.03872042 0.6400411 0.008140143
0.03614511 0.6396329 0.006952185
0.03352663 0.6392359 0.005858526
0.03086832 0.638854 0.004859684
0.02817362 0.638491 0.003955888
0.02544601 0.6381503 0.00314708
0.02268902 0.6378355 0.002432916
0.01990621 0.6375499 0.001812781
0.01710115 0.6372969 0.00128579
0.0142774 0.6370793 0.0008508074
0.01143848 0.6369002 0.0005064516
0.00858789 0.6367622 0.0002511135
0.005729052 0.636668 8.297014e-05
0.00286533 0.6366198 0
0 0.6366198 0

LINES 349 1047
2 0 1
2 1 2
2 2 3
2 3 4
2 4 5
2 5 6
2 6 7
2 7 8
2 8 9
2 9 10
2 10 11
2 11 12
2 12 13
2 13 14
2 14 15
2 15 16
2 16 17
2 17 18
2 18 19
2 19 20
2 20 21
2 21 22
2 22 23
2 23 24
2 24 25
2 25 26
2 26 27
2 27 28
2 28 29
2 29 30
2 30 31
2 31 32
2 32 33
2 33 34
2 34 35
2 35 36
2 36 37
2 37 38
2 38 39
2 39 40
2 40 41
2 41 42
2 42 43
2 43 44
2 44 45
2 45 46
2 46 47
2 47 48
2 48 49
2 49 50
2 50 51
2 51 52
2 52 53
2 53 54
2 54 55
2 55 56
2 56 57
2 57 58
2 58 59
2 59 60
2 60 61
2 61 62
2 62 63
2 63 64
2 64 65
2 65 66
2 66 67
2 67 68
2 68 69
2 69 70
2 70 71
2 71 72
2 72 73
2 73 74
2 74 75
2 75 76
2 76 77
2 77 78
2 78 79
2 79 80
2 80 81
2 81 82
2 82 83
2 83 84
2 84 85
2 85 86
2 86 87
2 87 88
2 88 89
2 89 90
2 90 91
2 91 92
2 92 93
2 93 94
2 94 95
2 95 96
2 96 97
2 97 98
2 98 99
2 99 100
2 100 101
2 101 102
2 102 103
2 103 104
2 104 105
2 105 106
2 106 107
2 107 108
2 108 109
2 109 110
2 110 111
2 111 112
2 112 113
2 113 114
2 114 115
2 115 116
2 116 117
2 117 118
2 118 119
2 119 120
2 120 121
2 121 122
2 122 123
2 123 124
2 124 125
2 125 126
2 126 127
2 127 128
2 128 129
2 129 130
2 130 131
2 131 132
2 132 133
2 133 134
2 134 135
2 135 136
2 136 137
2 137 138
2 138 139
2 139 140
2 140 141
2 141 142
2 142 143
2 143 144
2 144 145
2 145 146
2 146 147
2 147 148
2 148 149
2 149 150
2 150 151
2 151 152
2 152 153
2 153 154
2 154 155
2 155 156
2 156 157
2 157 158
2 158 159
2 159 160
2 160 161
2 161 162
2 162 163
2 163 164
2 164 165
2 165 166
2 166 167
2 167 168
2 168 169
2 169 170
2 170 171
2 171 172
2 172 173
2 173 174
2 174 175
2 175 176
2 176 177
2 177 178
2 178 179
2 179 180
2 180 181
2 181 182
2 182 183
2 183 184
2 184 185
2 185 186
2 186 187
2 187 188
2 188 189
2 189 190
2 190 191
2 191 192
2 192 193
2 193 194
2 194 195
2 195 196
2 196 197
2 197 198
2 198 199
2 199 200
2 200 201
2 201 202
2 202 203
2 203 204
2 204 205
2 205 206
2 206 207
2 207 208
2 208 209
2 209 210
2 210 211
2 211 212
2 212 213
2 213 214
2 214 215
2 215 216
2 216 217
2 217 218
2 218 219
2 219 220
2 220 221
2 221 222
2 222 223
2 223 224
2 224 225
2 225 226
2 226 227
2 227 228
2 228 229
2 229 230
2 230 231
2 231 232
2 232 233
2 233 234
2 234 235
2 235 236
2 236 237
2 237 238
2 238 239
2 239 240
2 240 241
2 241 242
2 242 243
2 243 244
2 244 245
2 245 246
2 246 247
2 247 248
2 248 249
2 249 250
2 250 251
2 251 252
2 252 253
2 253 254
2 254 255
2 255 256
2 256 257
2 257 258
2 258 259
2 259 260
2 260 261
2 261 262
2 262 263
2 263 264
2 264 265
2 265 266
2 266 267
2 267 268
2 268 269
2 269 270
2 270 271
2 271 272
2 272 273
2 273 274
2 274 275
2 275 276
2 276 277
2 277 278
2 278 279
2 279 280
2 280 281
2 281 282
2 282 283
2 283 284
2 284 285
2 285 286
2 286 287
2 287 288
2 288 289
2 289 290
2 290 291
2 291 292
2 292 293
2 293 294
2 294 295
2 295 296
2 296 297
2 297 298
2 298 299
2 299 300
2 300 301
2 301 302
2 302 303
2 303 304
2 304 305
2 305 306
2 306 307
2 307 308
2 308 309
2 309 310
2 310 311
2 311 312
2 312 313
2 313 314
2 314 315
2 315 316
2 316 317
2 317 318
2 318 319
2 319 320
2 320 321
2 321 322
2 322 323
2 323 324
2 324 325
2 325 326
2 326 327
2 327 328
2 328 329
2 329 330
2 330 331
2 331 332
2 332 333
2 333 334
2 334 335
2 335 336
2 336 337
2 337 338
2 338 339
2 339 340
2 340 341
2 341 342
2 342 343
2 343 344
2 344 345
2 345 346
2 346 347
2 347 348
2 348 349


POINT_DATA 350
SCALARS a FLOAT 1
LOOKUP_TABLE default
0.0005894628
0.0005894628
0.0005894628
0.0005894628
0.0005894628
0.0005894628
0.0005894628
0.0005894628
0.0005894628
0.0005894628
0.0005894628
0.0005894628
0.0005894628
0.0005894628
0.0005894628
0.0005894628
0.0005894628
0.0005894628
0.0005894628
0.0005894628
0.0005894628
0.0005894628
0.0005894628
0.0005894628
0.0005894628
0.0005894628
0.0005894628
0.0005894628
0.0005894628
0.0005894628
0.0005894628
0.0005894628
0.0005894628
0.0005894628
0.0005894628
0.0005894628
0.0005894628
0.0005894628
0.0005894628
0.0005894628
0.0005894628
0.0005894628
0.0005894628
0.0005894628
0.0005894628
0.0005894628
0.0005894628
0.0005894628
0.0005894628
0.0005894628
0.0005894628
0.0005894628
0.0005894628
0.0005894628
0.0005894628
0.0005894628
0.0005894628
0.0005894628
0.0005894628
0.0005894628
0.0005894628
0.0005894628
0.0005894628
0.0005894628
0.0005894628
0.0005894628
0.0005894628
0.0005894628
0.0005894628
0.0005894628
0.0005894628
0.0005894628
0.0005894628
0.0005894628
0.0005894628
0.0005894628
0.0005894628
0.0005894628
0.0005894628
0.0005894628
0.0005894628
0.0005894628
0.0005894628
0.0005894628
0.0005894628
0.0005894628
0.0005894628
0.0005894628
0.0005894628
0.0005894628
0.0005894628
0.0005894628
0.0005894628
0.0005894628
0.0005894628
0.0005894628
0.0005894628
0.0005894628
0.0005894628
0.0005894628
0.0005894628
0.0005894628
0.0005894628
0.0005894628
0.0005894628
0.0005894628
0.0005894628
0.0005894628
0.0005894628
0.0005894628
0.0005894628
0.0005894628
0.0005894628
0.0005894628
0.0005894628
0.0005894628
0.0005894628
0.0005894628
0.0005894628
0.0005894628
0.0005894628
0.0005894628
0.0005894628
0.0005894628
0.0005894628
0.0005894628
0.0005894628
0.0005894628
0.0005894628
0.0005894628
0.0005894628
0.0005894628
0.0005894628
0.0005894628
0.0005894628
0.0005894628
0.0005894628
0.0005894628
0.0005894628
0.0005894628
0.0005894628
0.0005894628
0.0005894628
0.0005894628
0.0005894628
0.0005894628
0.0005894628
0.0005894628
0.0005894628
0.0005894628
0.0005894628
0.0005894628
0.0005894628
0.0005894628
0.0005894628
0.0005894628
0.0005894628
0.0005894628
0.0005894628
0.0005894628
0.0005894628
0.0005894628
0.0005894628
0.0005894628
0.0005894628
0.0005894628
0.0005894628
0.0005894628
0.0005894628
0.0005894628
0.0005894628
0.0005894628
0.0005894628
0.0005894628
0.0005894628
0.0005894628
0.0005894628
0.0005894628
0.0005894628
0.0005894628
0.0005894628
0.0005894628
0.0005894628
0.0005894628
0.0005894628
0.0005894628
0.0005894628
0.0005894628
0.0005894628
0.0005894628
0.0005894628
0.0005894628
0.0005894628
0.0005894628
0.0005894628
0.0005894628
0.0005894628
0.0005894628
0.0005894628
0.0005894628
0.0005894628
0.0005894628
0.0005894628
0.0005894628
0.0005894628
0.0005894628
0.0005894628
0.0005894628
0.0005894628
0.0005894628
0.0005894628
0.0005894628
0.0005894628
0.0005894628
0.0005894628
0.0005894628
0.0005894628
0.0005894628
0.0005894628
0.0005894628
0.0005894628
0.0005894628
0.0005894628
0.0005894628
0.0005894628
0.0005894628
0.0005894628
0.0005894628
0.0005894628
0.0005894628
0.0005894628
0.0005894628
0.0005894628
0.0005894628
0.0005894628
0.0005894628
0.0005894628
0.0005894628
0.0005894628
0.0005894628
0.0005894628
0.0005894628
0.0005894628
0.0005894628
0.0005894628
0.0005894628
0.0005894628
0.0005894628
0.0005894628
0.0005894628
0.0005894628
0.0005894628
0.0005894628
0.0005894628
0.0005894628
0.0005894628
0.0005894628
0.0005894628
0.0005894628
0.0005894628
0.0005894628
0.0005894628
0.0005894628
0.0005894628
0.0005894628
0.0005894628
0.0005894628
0.0005894628
0.0005894628
0.0005894628
0.0005894628
0.0005894628
0.0005894628
0.0005894628
0.0005894628
0.0005894628
0.0005894628
0.0005894628
0.0005894628
0.0005894628
0.0005894628
0.0005894628
0.0005894628
0.0005894628
0.0005894628
0.0005894628
0.0005894628
0.0005894628
0.0005894628
0.0005894628
0.0005894628
0.0005894628
0.0005894628
0.0005894628
0.0005894628
0.0005894628
0.0005894628
0.0005894628
0.0005894628
0.0005894628
0.0005894628
0.0005894628
0.0005894628
0.0005894628
0.0005894628
0.0005894628
0.0005894628
0.0005894628
0.0005894628
0.0005894628
0.0005894628
0.0005894628
0.0005894628
0.0005894628
0.0005894628
0.0005894628
0.0005894628
0.0005894628
0.0005894628
0.0005894628
0.0005894628
0.0005894628
0.0005894628
0.0005894628
0.0005894628
0.0005894628
0.0005894628
0.0005894628
0.0005894628
0.0005894628
0.0005894628
0.0005894628
0.0005894628
0.0005894628
0.0005894628
0.0005894628
0.0005894628
0.0005894628
0.0005894628
0.0005894628
0.0005894628
0.0005894628
0.0005894628
0.0005894628
0.0005894628
0.0005894628
0.0005894628
0.0005894628
0.0005894628
0.0005894628


SCALARS b FLOAT 1
LOOKUP_TABLE default
0.04420971
0.04420971
0.04420971
0.04420971
0.04420971
0.04420971
0.04420971
0.04420971
0.04420971
0.04420971
0.04420971
0.04420971
0.04420971
0.04420971
0.04420971
0.04420971
0.04420971
0.04420971
0.04420971
0.04420971
0.04420971
0.04420971
0.04420971
0.04420971
0.04420971
0.04420971
0.04420971
0.04420971
0.04420971
0.04420971
0.04420971
0.04420971
0.04420971
0.04420971
0.04420971
0.04420971
0.04420971
0.04420971
0.04420971
0.04420971
0.04420971
0.04420971
0.04420971
0.04420971
0.04420971
0.04420971
0.04420971
0.04420971
0.04420971
0.04420971
0.04420971
0.04420971
0.04420971
0.04420971
0.04420971
0.04420971
0.04420971
0.04420971
0.04420971
0.04420971
0.04420971
0.04420971
0.04420971
0.04420971
0.04420971
0.04420971
0.04420971
0.04420971
0.04420971
0.04420971
0.04420971
0.04420971
0.04420971
0.04420971
0.04420971
0.04420971
0.04420971
0.04420971
0.04420971
0.04420971
0.04420971
0.04420971
0.04420971
0.04420971
0.04420971
0.04420971
0.04420971
0.04420971
0.04420971
0.04420971
0.04420971
0.04420971
0.04420971
0.04420971
0.04420971
0.04420971
0.04420971
0.04420971
0.04420971
0.04420971
0.04420971
0.04420971
0.04420971
0.04420971
0.04420971
0.04420971
0.04420971
0.04420971
0.04420971
0.04420971
0.04420971
0.04420971
0.04420971
0.04420971
0.04420971
0.04420971
0.04420971
0.04420971
0.04420971
0.04420971
0.04420971
0.04420971
0.04420971
0.04420971
0.04420971
0.04420971
0.04420971
0.04420971
0.04420971
0.04420971
0.04420971
0.04420971
0.04420971
0.04420971
0.04420971
0.04420971
0.04420971
0.04420971
0.04420971
0.04420971
0.04420971
0.04420971
0.04420971
0.04420971
0.04420971
0.04420971
0.04420971
0.04420971
0.04420971
0.04420971
0.04420971
0.04420971
0.04420971
0.04420971
0.04420971
0.04420971
0.04420971
0.04420971
0.04420971
0.04420971
0.04420971
0.04420971
0.04420971
0.04420971
0.04420971
0.04420971
0.04420971
0.04420971
0.04420971
0.04420971
0.04420971
0.04420971
0.04420971
0.04420971
0.04420971
0.04420971
0.04420971
0.04420971
0.04420971
0.04420971
0.04420971
0.04420971
0.04420971
0.04420971
0.04420971
0.04420971
0.04420971
0.04420971
0.04420971
0.04420971
0.04420971
0.04420971
0.04420971
0.04420971
0.04420971
0.04420971
0.04420971
0.04420971
0.04420971
0.04420971
0.04420971
0.04420971
0.04420971
0.04420971
0.04420971
0.04420971
0.04420971
0.04420971
0.04420971
0.04420971
0.04420971
0.04420971
0.04420971
0.04420971
0.04420971
0.04420971
0.04420971
0.04420971
0.04420971
0.04420971
0.04420971
0.04420971
0.04420971
0.04420971
0.04420971
0.04420971
0.04420971
0.04420971
0.04420971
0.04420971
0.04420971
0.04420971
0.04420971
0.04420971
0.04420971
0.04420971
0.04420971
0.04420971
0.04420971
0.04420971
0.04420971
0.04420971
0.04420971
0.04420971
0.04420971
0.04420971
0.04420971
0.04420971
0.04420971
0.04420971
0.04420971
0.04420971
0.04420971
0.04420971
0.04420971
0.04420971
0.04420971
0.04420971
0.04420971
0.04420971
0.04420971
0.04420971
0.04420971
0.04420971
0.04420971
0.04420971
0.04420971
0.04420971
0.04420971
0.04420971
0.04420971
0.04420971
0.04420971
0.04420971
0.04420971
0.04420971
0.04420971
0.04420971
0.04420971
0.04420971
0.04420971
0.04420971
0.04420971
0.04420971
0.04420971
0.04420971
0.04420971
0.04420971
0.04420971
0.04420971
0.04420971
0.04420971
0.04420971
0.04420971
0.04420971
0.04420971
0.04420971
0.04420971
0.04420971
0.04420971
0.04420971
0.04420971
0.04420971
0.04420971
0.04420971
0.04420971
0.04420971
0.04420971
0.04420971
0.04420971
0.04420971
0.04420971
0.04420971
0.04420971
0.04420971
0.04420971
0.04420971
0.04420971
0.04420971
0.04420971
0.04420971
0.04420971
0.04420971
0.04420971
0.04420971
0.04420971
0.04420971
0.04420971
0.04420971
0.04420971
0.04420971
0.04420971
0.04420971
0.04420971
0.04420971
0.04420971
0.04420971
0.04420971
0.04420971
0.04420971
0.04420971
0.04420971
0.04420971
0.04420971
0.04420971
0.04420971
0.04420971
0.04420971
0.04420971
0.04420971


VECTORS d1 FLOAT
0 -0.5155167 0.8568795
-0.03348662 -0.48878 0.8717642
-0.06724262 -0.4608114 0.884947
-0.1011795 -0.4316559 0.8963458
-0.1352049 -0.4013657 0.9058837
-0.1692226 -0.37 0.9134898
-0.2031335 -0.3376254 0.9191006
-0.2368362 -0.304315 0.9226597
-0.2702275 -0.2701485 0.9241195
-0.3032031 -0.2352117 0.923441
-0.3356583 -0.1995961 0.9205948
-0.3674892 -0.1633984 0.9155614
-0.3985929 -0.1267195 0.9083314
-0.4288685 -0.08966452 0.8989061
-0.4582179 -0.0523415 0.8872974
-0.4865468 -0.0148609 0.8735281
-0.5137651 0.02266526 0.8576315
-0.5397875 0.06012423 0.8396514
-0.5645348 0.09740332 0.819642
-0.5879336 0.1343908 0.7976673
-0.6099178 0.1709768 0.7738005
-0.6304282 0.2070539 0.7481237
-0.6494133 0.2425181 0.720727
-0.6668298 0.2772694 0.6917078
-0.6826423 0.3112128 0.6611703
-0.6968238 0.3442584 0.6292239
-0.7093556 0.3763226 0.5959831
-0.7202274 0.4073279 0.5615661
-0.7294368 0.4372038 0.5260938
-0.7369897 0.4658869 0.4896893
-0.7428992 0.4933213 0.4524764
-0.7471861 0.5194585 0.414579
-0.7498781 0.5442576 0.3761204
-0.751009 0.5676855 0.337222
-0.7506189 0.5897164 0.298003
-0.7487533 0.6103321 0.2585792
-0.7454623 0.6295215 0.219063
-0.7408006 0.6472804 0.179562
-0.7348265 0.6636112 0.1401794
-0.7276013 0.6785225 0.1010127
-0.7191892 0.6920288 0.06215407
-0.709656 0.70415 0.02368965
-0.6990692 0.714911 -0.01430053
-0.6874973 0.7243411 -0.05174267
-0.6750092 0.7324739 -0.08856931
-0.6616736 0.7393464 -0.1247193
-0.6475591 0.7449987 -0.1601379
-0.6327333 0.7494736 -0.1947763
-0.6172627 0.7528163 -0.228592
-0.6012124 0.7550736 -0.2615483
-0.5846456 0.7562938 -0.2936141
-0.5676237 0.7565262 -0.3247638
-0.5502058 0.7558207 -0.354977
-0.5324487 0.7542278 -0.3842379
-0.5144068 0.7517977 -0.4125358
-0.4961319 0.7485807 -0.4398638
-0.4776731 0.7446262 -0.4662192
-0.4590767 0.7399832 -0.4916029
-0.4403866 0.7346998 -0.5160193
-0.4216436 0.7288228 -0.5394757
-0.4028861 0.722398 -0.5619822
-0.3841497 0.7154696 -0.5835514
-0.3654675 0.7080805 -0.6041983
-0.3468698 0.7002721 -0.6239394
-0.3283846 0.6920841 -0.6427933
-0.3100375 0.6835545 -0.6607798
-0.2918518 0.6747198 -0.6779201
-0.2738485 0.6656146 -0.6942364
-0.2560467 0.6562718 -0.7097517
-0.2384631 0.6467227 -0.7244896
-0.2211129 0.6369968 -0.7384742
-0.2040093 0.6271221 -0.75173
-0.1871638 0.6171248 -0.7642818
-0.1705865 0.6070295 -0.7761543
-0.1542856 0.5968593 -0.7873722
-0.1382684 0.5866357 -0.7979601
-0.1225406 0.5763789 -0.8079425
-0.1071067 0.5661076 -0.8173435
-0.09197025 0.5558391 -0.8261866
-0.07713369 0.5455895 -0.8344954
-0.06259851 0.5353734 -0.8422925
-0.04836537 0.5252046 -0.8496004
-0.03443411 0.5150956 -0.8564408
-0.02080389 0.5050576 -0.8628348
-0.007473187 0.4951012 -0.8688032
0.005560074 0.4852357 -0.8743657
0.01829851 0.4754696 -0.8795418
0.03074522 0.4658107 -0.8843501
0.0429037 0.4562656 -0.8888087
0.05477782 0.4468405 -0.892935
0.0663718 0.4375408 -0.8967457
0.07769013 0.4283711 -0.9002569
0.08873753 0.4193355 -0.9034841
0.09951896 0.4104374 -0.906442
0.1100395 0.4016797 -0.909145
0.1203046 0.393065 -0.9116067
0.1303194 0.3845949 -0.91384
0.1400895 0.3762711 -0.9158575
0.1496205 0.3680945 -0.9176711
0.158918 0.3600657 -0.919292
0.1679877 0.3521851 -0.9207311
0.1768351 0.3444526 -0.9219988
0.185466 0.3368677 -0.9231048
0.1938859 0.3294299 -0.9240586
0.2021005 0.3221381 -0.9248689
0.2101154 0.314991 -0.9255442
0.2179361 0.3079873 -0.9260927
0.225568 0.3011253 -0.9265218
0.2330165 0.2944029 -0.9268388
0.2402869 0.2878182 -0.9270506
0.2473844 0.2813688 -0.9271637
0.2543141 0.2750523 -0.9271842
0.261081 0.268866 -0.927118
0.2676901 0.2628071 -0.9269706
0.274146 0.2568728 -0.9267472
0.2804534 0.2510599 -0.9264528
0.286617 0.2453654 -0.9260921
0.292641 0.2397858 -0.9256695
0.2985299 0.2343179 -0.9251892
0.3042876 0.2289581 -0.9246552
0.3099181 0.223703 -0.9240713
0.3154255 0.2185487 -0.923441
0.3208132 0.2134917 -0.9227677
0.3260849 0.2085281 -0.9220546
0.3312439 0.2036542 -0.9213048
0.3362934 0.1988661 -0.9205211
0.3412366 0.1941599 -0.9197062
0.3460764 0.1895318 -0.9188628
0.3508154 0.1849778 -0.9179934
0.3554562 0.180494 -0.9171002
0.3600013 0.1760766 -0.9161856
0.3644529 0.1717217 -0.9152518
0.368813 0.1674254 -0.9143007
0.3730836 0.1631839 -0.9133344
0.3772664 0.1589935 -0.9123547
0.381363 0.1548504 -0.9113636
0.3853747 0.1507509 -0.9103628
0.3893029 0.1466914 -0.9093541
0.3931485 0.1426685 -0.9083391
0.3969126 0.1386785 -0.9073195
0.4005957 0.134718 -0.9062969
0.4041985 0.1307838 -0.905273
0.4077214 0.1268726 -0.9042492
0.4111646 0.1229812 -0.9032272
0.4145282 0.1191064 -0.9022084
0.417812 0.1152453 -0.9011946
0.4210157 0.1113949 -0.9001872
0.4241389 0.1075525 -0.8991878
0.4271809 0.1037151 -0.898198
0.4301409 0.0998803 -0.8972195
0.4330177 0.09604543 -0.8962538
0.4358103 0.09220806 -0.8953028
0.4385171 0.08836585 -0.8943681
0.4411365 0.08451659 -0.8934515
0.4436666 0.08065818 -0.8925549
0.4461054 0.07678863 -0.8916801
0.4484505 0.07290614 -0.8908293
0.4506994 0.06900902 -0.8900044
0.4528494 0.06509577 -0.8892075
0.4548974 0.06116506 -0.8884409
0.4568403 0.05721576 -0.8877068
0.4586744 0.05324698 -0.8870076
0.4603963 0.04925805 -0.8863458
0.462002 0.04524857 -0.8857238
0.4634876 0.04121843 -0.8851442
0.4648489 0.03716785 -0.8846096
0.4660817 0.03309735 -0.8841224
0.4671819 0.02900785 -0.8836853
0.4681454 0.02490061 -0.8833006
0.4689683 0.02077726 -0.8829706
0.469647 0.0166398 -0.8826975
0.4701785 0.01249059 -0.882483
0.4705601 0.008332259 -0.8823286
0.4707898 0.004167706 -0.8822356
0.4708665 -2.588248e-09 -0.8822045
0.4707898 -0.004167711 -0.8822356
0.4705601 -0.008332264 -0.8823286
0.4701785 -0.01249059 -0.882483
0.469647 -0.01663981 -0.8826975
0.4689683 -0.02077726 -0.8829706
0.4681454 -0.02490061 -0.8833006
0.4671819 -0.02900786 -0.8836853
0.4660817 -0.03309736 -0.8841224
0.4648489 -0.03716785 -0.8846096
0.4634876 -0.04121844 -0.8851442
0.462002 -0.04524857 -0.8857238
0.4603963 -0.04925805 -0.8863458
0.4586744 -0.05324698 -0.8870076
0.4568403 -0.05721577 -0.8877068
0.4548974 -0.06116506 -0.8884409
0.4528494 -0.06509577 -0.8892075
0.4506994 -0.06900902 -0.8900044
0.4484505 -0.07290614 -0.8908293
0.4461054 -0.07678864 -0.8916801
0.4436666 -0.08065818 -0.8925549
0.4411365 -0.0845166 -0.8934515
0.4385171 -0.08836586 -0.8943681
0.4358103 -0.09220806 -0.8953028
0.4330177 -0.09604543 -0.8962538
0.4301409 -0.09988031 -0.8972195
0.4271809 -0.1037151 -0.898198
0.4241389 -0.1075525 -0.8991878
0.4210157 -0.1113949 -0.9001872
0.417812 -0.1152453 -0.9011946
0.4145282 -0.1191064 -0.9022084
0.4111646 -0.1229812 -0.9032272
0.4077214 -0.1268726 -0.9042492
0.4041985 -0.1307838 -0.905273
0.4005957 -0.134718 -0.9062969
0.3969126 -0.1386785 -0.9073195
0.3931485 -0.1426685 -0.9083391
0.3893029 -0.1466914 -0.9093541
0.3853747 -0.1507509 -0.9103628
0.381363 -0.1548504 -0.9113636
0.3772664 -0.1589935 -0.9123547
0.3730836 -0.1631839 -0.9133344
0.368813 -0.1674254 -0.9143007
0.3644529 -0.1717217 -0.9152518
0.3600013 -0.1760766 -0.9161856
0.3554562 -0.180494 -0.9171002
0.3508154 -0.1849778 -0.9179934
0.3460764 -0.1895318 -0.9188628
0.3412366 -0.1941599 -0.9197062
0.3362934 -0.1988661 -0.9205211
0.3312439 -0.2036542 -0.9213048