# vtk DataFile Version 2.0
Written badly by Kevin Korner
ASCII
DATASET POLYDATA
POINTS 350 FLOAT
0 0 0
0.00286533 0 0
0.005726159 -0.0001494689 5.854906e-05
0.008572939 -0.0004504175 0.0001825884
0.01139532 -0.0009039006 0.0003791464
0.01418219 -0.001509887 0.0006552506
0.01692176 -0.002267135 0.001017827
0.01960162 -0.003173072 0.001473589
0.02220891 -0.004223694 0.002028912
0.02473039 -0.005413481 0.002689708
0.02715267 -0.006735337 0.003461291
0.02946238 -0.008180562 0.004348241
0.03164636 -0.00973885 0.005354276
0.03369188 -0.01139834 0.006482126
0.0355869 -0.01314569 0.007733433
0.03732027 -0.01496622 0.009108652
0.03888197 -0.01684403 0.01060699
0.0402633 -0.01876227 0.01222638
0.04145708 -0.02070332 0.01396342
0.04245779 -0.02264907 0.01581349
0.0432617 -0.02458121 0.0177707
0.04386695 -0.0264815 0.01982805
0.04427355 -0.02833207 0.02197751
0.04448341 -0.03011569 0.02421017
0.04450024 -0.03181603 0.02651639
0.04432947 -0.03341792 0.02888598
0.0439781 -0.03490747 0.03130835
0.04345454 -0.03627232 0.03377273
0.04276843 -0.03750168 0.03626833
0.04193038 -0.03858645 0.03878449
0.04095182 -0.03951921 0.04131085
0.03984472 -0.04029425 0.04383746
0.03862144 -0.0409075 0.04635493
0.03729447 -0.04135644 0.04885447
0.03587628 -0.04164004 0.05132801
0.03437914 -0.04175862 0.05376823
0.03281501 -0.04171369 0.05616856
0.03119536 -0.04150787 0.05852323
0.02953112 -0.04114468 0.06082725
0.0278326 -0.04062843 0.06307639
0.02610939 -0.03996409 0.06526713
0.02437041 -0.03915713 0.06739665
0.0226238 -0.03821343 0.06946278
0.02087698 -0.03713911 0.07146392
0.01913663 -0.03594053 0.07339904
0.01740871 -0.03462408 0.07526756
0.0156985 -0.0331962 0.07706936
0.01401064 -0.03166326 0.07880468
0.01234913 -0.03003155 0.08047411
0.0107174 -0.02830717 0.08207851
0.009118364 -0.02649606 0.08361899
0.007554427 -0.02460394 0.08509685
0.006027557 -0.02263627 0.08651357
0.004539313 -0.0205983 0.08787074
0.003090891 -0.01849499 0.08917007
0.001683157 -0.01633104 0.09041334
0.0003166875 -0.01411089 0.09160239
-0.0010082 -0.01183873 0.09273908
-0.002291412 -0.009518468 0.09382529
-0.003533057 -0.007153778 0.09486292
-0.004733412 -0.004748086 0.09585383
-0.005892902 -0.002304589 0.09679989
-0.007012077 0.0001737388 0.09770291
-0.008091595 0.002684136 0.09856468
-0.009132202 0.005224039 0.09938696
-0.01013472 0.007791074 0.1001714
-0.01110002 0.01038304 0.1009198
-0.01202903 0.01299792 0.1016335
-0.01292272 0.01563382 0.1023143
-0.01378206 0.01828903 0.1029636
-0.01460807 0.02096194 0.1035827
-0.01540176 0.02365109 0.1041732
-0.01616415 0.02635513 0.1047362
-0.01689626 0.02907282 0.1052732
-0.01759911 0.03180301 0.1057852
-0.01827369 0.03454465 0.1062736
-0.018921 0.03729678 0.1067393
-0.01954202 0.04005852 0.1071834
-0.02013769 0.04282905 0.107607
-0.02070897 0.04560764 0.108011
-0.02125675 0.04839359 0.1083963
-0.02178195 0.05118629 0.1087639
-0.02228541 0.05398516 0.1091146
-0.022768 0.05678967 0.1094492
-0.02323052 0.05959935 0.1097684
-0.02367378 0.06241376 0.1100729
-0.02409853 0.06523249 0.1103636
-0.02450553 0.06805517 0.1106409
-0.0248955 0.07088147 0.1109056
-0.02526912 0.07371108 0.1111583
-0.02562706 0.07654371 0.1113995
-0.02596997 0.07937911 0.1116297
-0.02629847 0.08221705 0.1118495
-0.02661316 0.0850573 0.1120594
-0.02691461 0.08789967 0.1122599
-0.02720337 0.09074398 0.1124513
-0.02747997 0.09359006 0.1126341
-0.02774492 0.09643777 0.1128087
-0.02799871 0.09928696 0.1129755
-0.0282418 0.1021375 0.1131348
-0.02847465 0.1049893 0.1132871
-0.02869769 0.1078422 0.1134325
-0.02891133 0.1106962 0.1135715
-0.02911596 0.1135511 0.1137044
-0.02931196 0.1164069 0.1138313
-0.02949969 0.1192635 0.1139526
-0.02967951 0.1221209 0.1140686
-0.02985175 0.1249789 0.1141794
-0.03001671 0.1278375 0.1142853
-0.03017472 0.1306966 0.1143866
-0.03032605 0.1335563 0.1144834
-0.03047099 0.1364165 0.114576
-0.0306098 0.1392771 0.1146645
-0.03074275 0.1421381 0.1147491
-0.03087007 0.1449994 0.11483
-0.03099199 0.1478611 0.1149073
-0.03110875 0.1507231 0.1149812
-0.03122056 0.1535854 0.1150519
-0.03132762 0.1564479 0.1151195
-0.03143013 0.1593107 0.1151841
-0.03152827 0.1621737 0.1152459
-0.03162223 0.1650369 0.115305
-0.03171218 0.1679002 0.1153615
-0.03179828 0.1707637 0.1154154
-0.03188069 0.1736274 0.115467
-0.03195956 0.1764912 0.1155164
-0.03203503 0.1793552 0.1155635
-0.03210725 0.1822193 0.1156085
-0.03217634 0.1850834 0.1156516
-0.03224244 0.1879477 0.1156927
-0.03230566 0.1908121 0.115732
-0.03236611 0.1936765 0.1157695
-0.03242391 0.196541 0.1158054
-0.03247917 0.1994056 0.1158396
-0.03253198 0.2022703 0.1158723
-0.03258244 0.205135 0.1159035
-0.03263065 0.2079998 0.1159333
-0.03267668 0.2108646 0.1159617
-0.03272063 0.2137295 0.1159888
-0.03276258 0.2165944 0.1160146
-0.0328026 0.2194593 0.1160393
-0.03284076 0.2223243 0.1160627
-0.03287714 0.2251893 0.1160851
-0.0329118 0.2280543 0.1161063
-0.03294481 0.2309194 0.1161266
-0.03297621 0.2337845 0.1161458
-0.03300609 0.2366496 0.1161641
-0.03303447 0.2395147 0.1161815
-0.03306143 0.2423799 0.116198
-0.03308701 0.2452451 0.1162136
-0.03311124 0.2481103 0.1162284
-0.03313419 0.2509755 0.1162424
-0.03315589 0.2538407 0.1162556
-0.03317638 0.2567059 0.1162681
-0.03319569 0.2595712 0.1162798
-0.03321387 0.2624364 0.1162909
-0.03323095 0.2653017 0.1163013
-0.03324695 0.2681669 0.116311
-0.03326191 0.2710322 0.1163201
-0.03327585 0.2738975 0.1163286
-0.0332888 0.2767628 0.1163364
-0.03330079 0.2796281 0.1163437
-0.03331183 0.2824934 0.1163504
-0.03332194 0.2853587 0.1163565
-0.03333115 0.288224 0.1163621
-0.03333947 0.2910893 0.1163671
-0.03334692 0.2939546 0.1163717
-0.0333535 0.2968199 0.1163756
-0.03335923 0.2996853 0.1163791
-0.03336413 0.3025506 0.1163821
-0.03336819 0.3054159 0.1163845
-0.03337144 0.3082812 0.1163865
-0.03337387 0.3111466 0.116388
-0.03337548 0.3140119 0.1163889
-0.03337629 0.3168772 0.1163894
-0.03337629 0.3197426 0.1163894
-0.03337548 0.3226079 0.1163889
-0.03337387 0.3254732 0.116388
-0.03337144 0.3283385 0.1163865
-0.03336819 0.3312039 0.1163845
-0.03336413 0.3340692 0.1163821
-0.03335923 0.3369345 0.1163791
-0.0333535 0.3397998 0.1163756
-0.03334692 0.3426652 0.1163717
-0.03333947 0.3455305 0.1163671
-0.03333115 0.3483958 0.1163621
-0.03332194 0.3512611 0.1163565
-0.03331183 0.3541264 0.1163504
-0.03330079 0.3569917 0.1163437
-0.0332888 0.359857 0.1163364
-0.03327585 0.3627223 0.1163286
-0.03326191 0.3655876 0.1163201
-0.03324695 0.3684528 0.116311
-0.03323095 0.3713181 0.1163013
-0.03321387 0.3741834 0.1162909
-0.03319569 0.3770486 0.1162798
-0.03317638 0.3799139 0.1162681
-0.03315589 0.3827791 0.1162556
-0.03313419 0.3856443 0.1162424
-0.03311124 0.3885095 0.1162284
-0.03308701 0.3913747 0.1162136
-0.03306143 0.3942399 0.116198
-0.03303447 0.397105 0.1161815
-0.03300609 0.3999702 0.1161641
-0.03297621 0.4028353 0.1161458
-0.03294481 0.4057004 0.1161266
-0.0329118 0.4085654 0.1161063
-0.03287714 0.4114305 0.1160851
-0.03284076 0.4142955 0.1160627
-0.0328026 0.4171605 0.1160393
-0.03276258 0.4200254 0.1160146
-0.03272063 0.4228903 0.1159888
-0.03267668 0.4257552 0.1159617
-0.03263065 0.42862 0.1159333
-0.03258244 0.4314848 0.1159035
-0.03253198 0.4343495 0.1158723
-0.03247917 0.4372141 0.1158396
-0.03242391 0.4400787 0.1158054
-0.03236611 0.4429433 0.1157695
-0.03230566 0.4458077 0.115732
-0.03224244 0.4486721 0.1156927
-0.03217634 0.4515363 0.1156516
-0.03210725 0.4544005 0.1156085
-0.03203503 0.4572646 0.1155635
-0.03195956 0.4601285 0.1155164
-0.03188068 0.4629923 0.115467
-0.03179828 0.465856 0.1154154
-0.03171218 0.4687196 0.1153615
-0.03162223 0.4715829 0.115305
-0.03152827 0.4744461 0.1152459
-0.03143013 0.4773091 0.1151841
-0.03132762 0.4801718 0.1151195
-0.03122056 0.4830344 0.1150519
-0.03110875 0.4858966 0.1149812
-0.03099199 0.4887586 0.1149073
-0.03087007 0.4916203 0.11483
-0.03074275 0.4944817 0.1147491
-0.0306098 0.4973427 0.1146645
-0.03047099 0.5002033 0.114576
-0.03032605 0.5030634 0.1144834
-0.03017472 0.5059231 0.1143866
-0.03001671 0.5087823 0.1142853
-0.02985175 0.5116409 0.1141794
-0.02967951 0.5144989 0.1140686
-0.02949969 0.5173563 0.1139526
-0.02931196 0.5202128 0.1138313
-0.02911595 0.5230686 0.1137044
-0.02891132 0.5259236 0.1135715
-0.02869769 0.5287775 0.1134325
-0.02847465 0.5316305 0.1132871
-0.0282418 0.5344823 0.1131348
-0.02799871 0.5373328 0.1129755
-0.02774492 0.540182 0.1128087
-0.02747997 0.5430297 0.1126341
-0.02720337 0.5458758 0.1124513
-0.02691461 0.5487201 0.1122599
-0.02661316 0.5515625 0.1120594
-0.02629847 0.5544027 0.1118495
-0.02596997 0.5572407 0.1116297
-0.02562706 0.5600761 0.1113995
-0.02526912 0.5629087 0.1111583
-0.0248955 0.5657383 0.1109056
-0.02450553 0.5685646 0.1106409
-0.02409853 0.5713873 0.1103636
-0.02367378 0.574206 0.1100729
-0.02323052 0.5770204 0.1097684
-0.022768 0.5798301 0.1094492
-0.02228541 0.5826346 0.1091146
-0.02178195 0.5854335 0.1087639
-0.02125675 0.5882262 0.1083963
-0.02070897 0.5910121 0.108011
-0.02013769 0.5937907 0.107607
-0.01954202 0.5965613 0.1071834
-0.018921 0.599323 0.1067393
-0.01827369 0.6020751 0.1062736
-0.01759911 0.6048168 0.1057852
-0.01689626 0.607547 0.1052732
-0.01616415 0.6102646 0.1047362
-0.01540176 0.6129687 0.1041732
-0.01460807 0.6156578 0.1035827
-0.01378206 0.6183307 0.1029636
-0.01292272 0.6209859 0.1023143
-0.01202903 0.6236219 0.1016335
-0.01110002 0.6262367 0.1009198
-0.01013472 0.6288287 0.1001714
-0.009132202 0.6313957 0.09938696
-0.008091595 0.6339356 0.09856468
-0.007012076 0.636446 0.09770291
-0.005892901 0.6389244 0.09679989
-0.004733412 0.6413679 0.09585383
-0.003533057 0.6437735 0.09486292
-0.002291412 0.6461382 0.09382529
-0.001008199 0.6484585 0.09273908
0.0003166877 0.6507307 0.09160239
0.001683157 0.6529508 0.09041334
0.003090891 0.6551148 0.08917007
0.004539313 0.6572181 0.08787074
0.006027557 0.659256 0.08651357
0.007554427 0.6612237 0.08509685
0.009118365 0.6631158 0.08361899
0.0107174 0.6649269 0.08207851
0.01234913 0.6666513 0.08047411
0.01401064 0.668283 0.07880468
0.0156985 0.669816 0.07706936
0.01740871 0.6712438 0.07526756
0.01913663 0.6725603 0.07339904
0.02087698 0.6737589 0.07146392
0.0226238 0.6748332 0.06946278
0.02437041 0.6757769 0.06739665
0.02610939 0.6765839 0.06526713
0.0278326 0.6772482 0.06307639
0.02953112 0.6777644 0.06082725
0.03119536 0.6781276 0.05852323
0.03281501 0.6783335 0.05616856
0.03437914 0.6783784 0.05376823
0.03587628 0.6782598 0.05132801
0.03729447 0.6779762 0.04885447
0.03862144 0.6775273 0.04635493
0.03984472 0.676914 0.04383746
0.04095182 0.676139 0.04131085
0.04193038 0.6752062 0.03878449
0.04276843 0.6741215 0.03626833
0.04345454 0.6728921 0.03377273
0.0439781 0.6715272 0.03130835
0.04432947 0.6700377 0.02888598
0.04450024 0.6684358 0.02651639
0.04448341 0.6667355 0.02421017
0.04427355 0.6649518 0.02197751
0.04386695 0.6631013 0.01982805
0.0432617 0.661201 0.0177707
0.04245779 0.6592688 0.01581349
0.04145708 0.6573231 0.01396343
0.0402633 0.655382 0.01222638
0.03888197 0.6534638 0.01060699
0.03732027 0.651586 0.009108652
0.0355869 0.6497655 0.007733433
0.03369188 0.6480181 0.006482126
0.03164636 0.6463586 0.005354276
0.02946238 0.6448003 0.004348242
0.02715267 0.6433551 0.003461291
0.02473039 0.6420333 0.002689708
0.02220891 0.6408435 0.002028912
0.01960162 0.6397928 0.001473589
0.01692176 0.6388869 0.001017827
0.01418219 0.6381297 0.0006552506
0.01139532 0.6375237 0.0003791464
0.008572939 0.6370702 0.0001825884
0.005726159 0.6367692 5.854906e-05
0.00286533 0.6366198 0
0 0.6366198 0

LINES 349 1047
2 0 1
2 1 2
2 2 3
2 3 4
2 4 5
2 5 6
2 6 7
2 7 8
2 8 9
2 9 10
2 10 11
2 11 12
2 12 13
2 13 14
2 14 15
2 15 16
2 16 17
2 17 18
2 18 19
2 19 20
2 20 21
2 21 22
2 22 23
2 23 24
2 24 25
2 25 26
2 26 27
2 27 28
2 28 29
2 29 30
2 30 31
2 31 32
2 32 33
2 33 34
2 34 35
2 35 36
2 36 37
2 37 38
2 38 39
2 39 40
2 40 41
2 41 42
2 42 43
2 43 44
2 44 45
2 45 46
2 46 47
2 47 48
2 48 49
2 49 50
2 50 51
2 51 52
2 52 53
2 53 54
2 54 55
2 55 56
2 56 57
2 57 58
2 58 59
2 59 60
2 60 61
2 61 62
2 62 63
2 63 64
2 64 65
2 65 66
2 66 67
2 67 68
2 68 69
2 69 70
2 70 71
2 71 72
2 72 73
2 73 74
2 74 75
2 75 76
2 76 77
2 77 78
2 78 79
2 79 80
2 80 81
2 81 82
2 82 83
2 83 84
2 84 85
2 85 86
2 86 87
2 87 88
2 88 89
2 89 90
2 90 91
2 91 92
2 92 93
2 93 94
2 94 95
2 95 96
2 96 97
2 97 98
2 98 99
2 99 100
2 100 101
2 101 102
2 102 103
2 103 104
2 104 105
2 105 106
2 106 107
2 107 108
2 108 109
2 109 110
2 110 111
2 111 112
2 112 113
2 113 114
2 114 115
2 115 116
2 116 117
2 117 118
2 118 119
2 119 120
2 120 121
2 121 122
2 122 123
2 123 124
2 124 125
2 125 126
2 126 127
2 127 128
2 128 129
2 129 130
2 130 131
2 131 132
2 132 133
2 133 134
2 134 135
2 135 136
2 136 137
2 137 138
2 138 139
2 139 140
2 140 141
2 141 142
2 142 143
2 143 144
2 144 145
2 145 146
2 146 147
2 147 148
2 148 149
2 149 150
2 150 151
2 151 152
2 152 153
2 153 154
2 154 155
2 155 156
2 156 157
2 157 158
2 158 159
2 159 160
2 160 161
2 161 162
2 162 163
2 163 164
2 164 165
2 165 166
2 166 167
2 167 168
2 168 169
2 169 170
2 170 171
2 171 172
2 172 173
2 173 174
2 174 175
2 175 176
2 176 177
2 177 178
2 178 179
2 179 180
2 180 181
2 181 182
2 182 183
2 183 184
2 184 185
2 185 186
2 186 187
2 187 188
2 188 189
2 189 190
2 190 191
2 191 192
2 192 193
2 193 194
2 194 195
2 195 196
2 196 197
2 197 198
2 198 199
2 199 200
2 200 201
2 201 202
2 202 203
2 203 204
2 204 205
2 205 206
2 206 207
2 207 208
2 208 209
2 209 210
2 210 211
2 211 212
2 212 213
2 213 214
2 214 215
2 215 216
2 216 217
2 217 218
2 218 219
2 219 220
2 220 221
2 221 222
2 222 223
2 223 224
2 224 225
2 225 226
2 226 227
2 227 228
2 228 229
2 229 230
2 230 231
2 231 232
2 232 233
2 233 234
2 234 235
2 235 236
2 236 237
2 237 238
2 238 239
2 239 240
2 240 241
2 241 242
2 242 243
2 243 244
2 244 245
2 245 246
2 246 247
2 247 248
2 248 249
2 249 250
2 250 251
2 251 252
2 252 253
2 253 254
2 254 255
2 255 256
2 256 257
2 257 258
2 258 259
2 259 260
2 260 261
2 261 262
2 262 263
2 263 264
2 264 265
2 265 266
2 266 267
2 267 268
2 268 269
2 269 270
2 270 271
2 271 272
2 272 273
2 273 274
2 274 275
2 275 276
2 276 277
2 277 278
2 278 279
2 279 280
2 280 281
2 281 282
2 282 283
2 283 284
2 284 285
2 285 286
2 286 287
2 287 288
2 288 289
2 289 290
2 290 291
2 291 292
2 292 293
2 293 294
2 294 295
2 295 296
2 296 297
2 297 298
2 298 299
2 299 300
2 300 301
2 301 302
2 302 303
2 303 304
2 304 305
2 305 306
2 306 307
2 307 308
2 308 309
2 309 310
2 310 311
2 311 312
2 312 313
2 313 314
2 314 315
2 315 316
2 316 317
2 317 318
2 318 319
2 319 320
2 320 321
2 321 322
2 322 323
2 323 324
2 324 325
2 325 326
2 326 327
2 327 328
2 328 329
2 329 330
2 330 331
2 331 332
2 332 333
2 333 334
2 334 335
2 335 336
2 336 337
2 337 338
2 338 339
2 339 340
2 340 341
2 341 342
2 342 343
2 343 344
2 344 345
2 345 346
2 346 347
2 347 348
2 348 349


POINT_DATA 350
SCALARS a FLOAT 1
LOOKUP_TABLE default
0.0005894628
0.0005894628
0.0005894628
0.0005894628
0.0005894628
0.0005894628
0.0005894628
0.0005894628
0.0005894628
0.0005894628
0.0005894628
0.0005894628
0.0005894628
0.0005894628
0.0005894628
0.0005894628
0.0005894628
0.0005894628
0.0005894628
0.0005894628
0.0005894628
0.0005894628
0.0005894628
0.0005894628
0.0005894628
0.0005894628
0.0005894628
0.0005894628
0.0005894628
0.0005894628
0.0005894628
0.0005894628
0.0005894628
0.0005894628
0.0005894628
0.0005894628
0.0005894628
0.0005894628
0.0005894628
0.0005894628
0.0005894628
0.0005894628
0.0005894628
0.0005894628
0.0005894628
0.0005894628
0.0005894628
0.0005894628
0.0005894628
0.0005894628
0.0005894628
0.0005894628
0.0005894628
0.0005894628
0.0005894628
0.0005894628
0.0005894628
0.0005894628
0.0005894628
0.0005894628
0.0005894628
0.0005894628
0.0005894628
0.0005894628
0.0005894628
0.0005894628
0.0005894628
0.0005894628
0.0005894628
0.0005894628
0.0005894628
0.0005894628
0.0005894628
0.0005894628
0.0005894628
0.0005894628
0.0005894628
0.0005894628
0.0005894628
0.0005894628
0.0005894628
0.0005894628
0.0005894628
0.0005894628
0.0005894628
0.0005894628
0.0005894628
0.0005894628
0.0005894628
0.0005894628
0.0005894628
0.0005894628
0.0005894628
0.0005894628
0.0005894628
0.0005894628
0.0005894628
0.0005894628
0.0005894628
0.0005894628
0.0005894628
0.0005894628
0.0005894628
0.0005894628
0.0005894628
0.0005894628
0.0005894628
0.0005894628
0.0005894628
0.0005894628
0.0005894628
0.0005894628
0.0005894628
0.0005894628
0.0005894628
0.0005894628
0.0005894628
0.0005894628
0.0005894628
0.0005894628
0.0005894628
0.0005894628
0.0005894628
0.0005894628
0.0005894628
0.0005894628
0.0005894628
0.0005894628
0.0005894628
0.0005894628
0.0005894628
0.0005894628
0.0005894628
0.0005894628
0.0005894628
0.0005894628
0.0005894628
0.0005894628
0.0005894628
0.0005894628
0.0005894628
0.0005894628
0.0005894628
0.0005894628
0.0005894628
0.0005894628
0.0005894628
0.0005894628
0.0005894628
0.0005894628
0.0005894628
0.0005894628
0.0005894628
0.0005894628
0.0005894628
0.0005894628
0.0005894628
0.0005894628
0.0005894628
0.0005894628
0.0005894628
0.0005894628
0.0005894628
0.0005894628
0.0005894628
0.0005894628
0.0005894628
0.0005894628
0.0005894628
0.0005894628
0.0005894628
0.0005894628
0.0005894628
0.0005894628
0.0005894628
0.0005894628
0.0005894628
0.0005894628
0.0005894628
0.0005894628
0.0005894628
0.0005894628
0.0005894628
0.0005894628
0.0005894628
0.0005894628
0.0005894628
0.0005894628
0.0005894628
0.0005894628
0.0005894628
0.0005894628
0.0005894628
0.0005894628
0.0005894628
0.0005894628
0.0005894628
0.0005894628
0.0005894628
0.0005894628
0.0005894628
0.0005894628
0.0005894628
0.0005894628
0.0005894628
0.0005894628
0.0005894628
0.0005894628
0.0005894628
0.0005894628
0.0005894628
0.0005894628
0.0005894628
0.0005894628
0.0005894628
0.0005894628
0.0005894628
0.0005894628
0.0005894628
0.0005894628
0.0005894628
0.0005894628
0.0005894628
0.0005894628
0.0005894628
0.0005894628
0.0005894628
0.0005894628
0.0005894628
0.0005894628
0.0005894628
0.0005894628
0.0005894628
0.0005894628
0.0005894628
0.0005894628
0.0005894628
0.0005894628
0.0005894628
0.0005894628
0.0005894628
0.0005894628
0.0005894628
0.0005894628
0.0005894628
0.0005894628
0.0005894628
0.0005894628
0.0005894628
0.0005894628
0.0005894628
0.0005894628
0.0005894628
0.0005894628
0.0005894628
0.0005894628
0.0005894628
0.0005894628
0.0005894628
0.0005894628
0.0005894628
0.0005894628
0.0005894628
0.0005894628
0.0005894628
0.0005894628
0.0005894628
0.0005894628
0.0005894628
0.0005894628
0.0005894628
0.0005894628
0.0005894628
0.0005894628
0.0005894628
0.0005894628
0.0005894628
0.0005894628
0.0005894628
0.0005894628
0.0005894628
0.0005894628
0.0005894628
0.0005894628
0.0005894628
0.0005894628
0.0005894628
0.0005894628
0.0005894628
0.0005894628
0.0005894628
0.0005894628
0.0005894628
0.0005894628
0.0005894628
0.0005894628
0.0005894628
0.0005894628
0.0005894628
0.0005894628
0.0005894628
0.0005894628
0.0005894628
0.0005894628
0.0005894628
0.0005894628
0.0005894628
0.0005894628
0.0005894628
0.0005894628
0.0005894628
0.0005894628
0.0005894628
0.0005894628
0.0005894628
0.0005894628
0.0005894628
0.0005894628
0.0005894628
0.0005894628
0.0005894628
0.0005894628
0.0005894628
0.0005894628
0.0005894628
0.0005894628
0.0005894628
0.0005894628
0.0005894628
0.0005894628
0.0005894628
0.0005894628
0.0005894628
0.0005894628
0.0005894628
0.0005894628
0.0005894628
0.0005894628
0.0005894628
0.0005894628
0.0005894628
0.0005894628
0.0005894628
0.0005894628
0.0005894628
0.0005894628
0.0005894628
0.0005894628
0.0005894628
0.0005894628


SCALARS b FLOAT 1
LOOKUP_TABLE default
0.04420971
0.04420971
0.04420971
0.04420971
0.04420971
0.04420971
0.04420971
0.04420971
0.04420971
0.04420971
0.04420971
0.04420971
0.04420971
0.04420971
0.04420971
0.04420971
0.04420971
0.04420971
0.04420971
0.04420971
0.04420971
0.04420971
0.04420971
0.04420971
0.04420971
0.04420971
0.04420971
0.04420971
0.04420971
0.04420971
0.04420971
0.04420971
0.04420971
0.04420971
0.04420971
0.04420971
0.04420971
0.04420971
0.04420971
0.04420971
0.04420971
0.04420971
0.04420971
0.04420971
0.04420971
0.04420971
0.04420971
0.04420971
0.04420971
0.04420971
0.04420971
0.04420971
0.04420971
0.04420971
0.04420971
0.04420971
0.04420971
0.04420971
0.04420971
0.04420971
0.04420971
0.04420971
0.04420971
0.04420971
0.04420971
0.04420971
0.04420971
0.04420971
0.04420971
0.04420971
0.04420971
0.04420971
0.04420971
0.04420971
0.04420971
0.04420971
0.04420971
0.04420971
0.04420971
0.04420971
0.04420971
0.04420971
0.04420971
0.04420971
0.04420971
0.04420971
0.04420971
0.04420971
0.04420971
0.04420971
0.04420971
0.04420971
0.04420971
0.04420971
0.04420971
0.04420971
0.04420971
0.04420971
0.04420971
0.04420971
0.04420971
0.04420971
0.04420971
0.04420971
0.04420971
0.04420971
0.04420971
0.04420971
0.04420971
0.04420971
0.04420971
0.04420971
0.04420971
0.04420971
0.04420971
0.04420971
0.04420971
0.04420971
0.04420971
0.04420971
0.04420971
0.04420971
0.04420971
0.04420971
0.04420971
0.04420971
0.04420971
0.04420971
0.04420971
0.04420971
0.04420971
0.04420971
0.04420971
0.04420971
0.04420971
0.04420971
0.04420971
0.04420971
0.04420971
0.04420971
0.04420971
0.04420971
0.04420971
0.04420971
0.04420971
0.04420971
0.04420971
0.04420971
0.04420971
0.04420971
0.04420971
0.04420971
0.04420971
0.04420971
0.04420971
0.04420971
0.04420971
0.04420971
0.04420971
0.04420971
0.04420971
0.04420971
0.04420971
0.04420971
0.04420971
0.04420971
0.04420971
0.04420971
0.04420971
0.04420971
0.04420971
0.04420971
0.04420971
0.04420971
0.04420971
0.04420971
0.04420971
0.04420971
0.04420971
0.04420971
0.04420971
0.04420971
0.04420971
0.04420971
0.04420971
0.04420971
0.04420971
0.04420971
0.04420971
0.04420971
0.04420971
0.04420971
0.04420971
0.04420971
0.04420971
0.04420971
0.04420971
0.04420971
0.04420971
0.04420971
0.04420971
0.04420971
0.04420971
0.04420971
0.04420971
0.04420971
0.04420971
0.04420971
0.04420971
0.04420971
0.04420971
0.04420971
0.04420971
0.04420971
0.04420971
0.04420971
0.04420971
0.04420971
0.04420971
0.04420971
0.04420971
0.04420971
0.04420971
0.04420971
0.04420971
0.04420971
0.04420971
0.04420971
0.04420971
0.04420971
0.04420971
0.04420971
0.04420971
0.04420971
0.04420971
0.04420971
0.04420971
0.04420971
0.04420971
0.04420971
0.04420971
0.04420971
0.04420971
0.04420971
0.04420971
0.04420971
0.04420971
0.04420971
0.04420971
0.04420971
0.04420971
0.04420971
0.04420971
0.04420971
0.04420971
0.04420971
0.04420971
0.04420971
0.04420971
0.04420971
0.04420971
0.04420971
0.04420971
0.04420971
0.04420971
0.04420971
0.04420971
0.04420971
0.04420971
0.04420971
0.04420971
0.04420971
0.04420971
0.04420971
0.04420971
0.04420971
0.04420971
0.04420971
0.04420971
0.04420971
0.04420971
0.04420971
0.04420971
0.04420971
0.04420971
0.04420971
0.04420971
0.04420971
0.04420971
0.04420971
0.04420971
0.04420971
0.04420971
0.04420971
0.04420971
0.04420971
0.04420971
0.04420971
0.04420971
0.04420971
0.04420971
0.04420971
0.04420971
0.04420971
0.04420971
0.04420971
0.04420971
0.04420971
0.04420971
0.04420971
0.04420971
0.04420971
0.04420971
0.04420971
0.04420971
0.04420971
0.04420971
0.04420971
0.04420971
0.04420971
0.04420971
0.04420971
0.04420971
0.04420971
0.04420971
0.04420971
0.04420971
0.04420971
0.04420971
0.04420971
0.04420971
0.04420971
0.04420971
0.04420971
0.04420971
0.04420971
0.04420971
0.04420971
0.04420971
0.04420971
0.04420971
0.04420971
0.04420971
0.04420971
0.04420971
0.04420971
0.04420971
0.04420971
0.04420971
0.04420971


VECTORS d1 FLOAT
0 -0.937209 0.3487683
-0.05601568 -0.9232433 0.3801107
-0.1135345 -0.9048388 0.4103373
-0.1722572 -0.881751 0.4391385
-0.2318331 -0.8537695 0.4661878
-0.2918606 -0.8207271 0.491146
-0.3518884 -0.7825092 0.5136671
-0.4114196 -0.7390626 0.5334045
-0.4699162 -0.6904045 0.5500185
-0.526807 -0.6366297 0.5631847
-0.5814969 -0.5779167 0.5726026
-0.6333779 -0.5145316 0.5780049
-0.6818423 -0.4468299 0.5791667
-0.7262966 -0.3752553 0.5759138
-0.7661768 -0.300335 0.5681302
-0.8009633 -0.2226729 0.5557649
-0.8301954 -0.1429388 0.5388358
-0.8534855 -0.06185527 0.5174326
-0.8705299 0.01981802 0.4917164
-0.8811184 0.1013018 0.461918
-0.8851408 0.1818153 0.4283328
-0.882589 0.2605955 0.3913139
-0.8735574 0.3369146 0.3512635
-0.8582383 0.4100968 0.3086223
-0.8369151 0.4795329 0.2638584
-0.8099529 0.5446921 0.2174552
-0.7777859 0.6051306 0.1698998
-0.7409045 0.6604972 0.1216717
-0.6998403 0.7105354 0.07323274
-0.6551525 0.7550823 0.02501784
-0.6074128 0.7940656 -0.0225721
-0.5571928 0.8274968 -0.06917584
-0.5050519 0.8554635 -0.1144758
-0.4515275 0.8781206 -0.1582
-0.3971258 0.8956795 -0.2001231
-0.3423162 0.9083987 -0.2400654
-0.287526 0.9165726 -0.2778911
-0.2331381 0.9205221 -0.3135055
-0.1794888 0.9205856 -0.3468515
-0.1268686 0.9171104 -0.3779059
-0.07552286 0.9104458 -0.4066752
-0.02565404 0.9009368 -0.4331914
0.02257579 0.888919 -0.4575078
0.06904167 0.8747145 -0.4796954
0.1136523 0.8586293 -0.4998389
0.1563466 0.8409502 -0.5180333
0.1970898 0.8219442 -0.5343812
0.2358702 0.8018573 -0.5489901
0.2726957 0.780914 -0.56197
0.3075908 0.7593182 -0.5734315
0.3405933 0.7372531 -0.5834845
0.3717523 0.7148822 -0.5922362
0.4011253 0.6923504 -0.5997911
0.4287766 0.6697853 -0.6062494
0.4547751 0.6472979 -0.6117066
0.479193 0.6249845 -0.6162535
0.5021043 0.6029276 -0.6199754
0.523584 0.5811971 -0.6229524
0.5437068 0.5598517 -0.6252591
0.5625466 0.5389401 -0.6269648
0.5801758 0.5185017 -0.6281338
0.5966648 0.4985681 -0.6288251
0.6120818 0.4791637 -0.629093
0.6264922 0.4603068 -0.6289874
0.639959 0.4420101 -0.6285536
0.6525419 0.4242816 -0.6278329
0.6642979 0.4071253 -0.626863
0.675281 0.3905415 -0.6256779
0.6855422 0.3745277 -0.6243083
0.6951296 0.3590788 -0.6227818
0.7040885 0.3441875 -0.6211234
0.7124614 0.3298448 -0.6193554
0.7202883 0.3160401 -0.6174978
0.7276064 0.3027618 -0.6155683
0.7344507 0.2899972 -0.6135827
0.7408539 0.277733 -0.6115553
0.7468465 0.2659553 -0.6094982
0.7524569 0.2546497 -0.6074226
0.7577115 0.2438018 -0.605338
0.762635 0.2333967 -0.6032527
0.7672503 0.2234198 -0.6011743
0.7715789 0.2138564 -0.5991089
0.7756405 0.2046918 -0.597062
0.7794536 0.1959115 -0.5950385
0.7830353 0.1875015 -0.5930421
0.7864015 0.1794476 -0.5910764
0.7895669 0.1717363 -0.589144
0.7925454 0.164354 -0.5872475
0.7953495 0.1572879 -0.5853885
0.797991 0.1505252 -0.5835687
0.800481 0.1440536 -0.5817893
0.8028295 0.137861 -0.580051
0.8050458 0.1319359 -0.5783546
0.8071389 0.1262672 -0.5767005
0.8091166 0.1208438 -0.5750888
0.8109864 0.1156554 -0.5735197
0.8127553 0.1106918 -0.5719931
0.8144298 0.1059434 -0.5705087
0.8160156 0.1014008 -0.5690662
0.8175184 0.09705495 -0.5676653
0.8189433 0.09289725 -0.5663056
0.8202949 0.0889194 -0.5649864
0.8215776 0.08511344 -0.5637073
0.8227956 0.08147176 -0.5624676
0.8239525 0.07798707 -0.5612666
0.825052 0.07465238 -0.5601038
0.8260971 0.07146102 -0.5589784
0.8270911 0.06840659 -0.5578896
0.8280367 0.06548301 -0.5568368
0.8289364 0.06268445 -0.5558193
0.8297929 0.06000533 -0.5548361
0.8306083 0.05744036 -0.5538866
0.8313849 0.05498445 -0.55297
0.8321246 0.05263277 -0.5520856
0.8328293 0.0503807 -0.5512324
0.8335008 0.04822382 -0.5504098
0.8341407 0.04615792 -0.549617
0.8347506 0.04417898 -0.5488531
0.835332 0.04228317 -0.5481174
0.8358862 0.04046681 -0.5474091
0.8364146 0.03872641 -0.5467274
0.8369184 0.03705861 -0.5460716
0.8373988 0.03546022 -0.5454409
0.8378569 0.03392819 -0.5448345
0.8382937 0.03245958 -0.5442518
0.8387103 0.03105161 -0.5436919
0.8391075 0.0297016 -0.5431542
0.8394862 0.02840699 -0.5426379
0.8398474 0.02716534 -0.5421425
0.8401917 0.02597429 -0.5416671
0.84052 0.02483161 -0.5412111
0.840833 0.02373514 -0.540774
0.8411314 0.02268282 -0.540355
0.8414158 0.02167268 -0.5399535
0.8416868 0.02070282 -0.539569
0.841945 0.01977142 -0.5392009
0.842191 0.01887676 -0.5388487
0.8424254 0.01801714 -0.5385117
0.8426485 0.01719097 -0.5381895
0.8428609 0.0163967 -0.5378816
0.8430631 0.01563286 -0.5375874
0.8432554 0.01489802 -0.5373065
0.8434383 0.01419082 -0.5370385
0.8436122 0.01350993 -0.5367829
0.8437774 0.01285408 -0.5365394
0.8439342 0.01222207 -0.5363074
0.8440831 0.01161271 -0.5360866
0.8442242 0.01102488 -0.5358767
0.844358 0.01045748 -0.5356773
0.8444846 0.009909456 -0.5354881
0.8446044 0.009379793 -0.5353087
0.8447176 0.008867509 -0.5351389
0.8448243 0.008371652 -0.5349783
0.844925 0.007891303 -0.5348266
0.8450196 0.007425572 -0.5346838
0.8451085 0.006973595 -0.5345493
0.8451918 0.006534534 -0.5344231
0.8452697 0.006107575 -0.534305
0.8453423 0.005691927 -0.5341946
0.8454099 0.005286821 -0.5340919
0.8454724 0.004891505 -0.5339966
0.8455302 0.004505246 -0.5339087
0.8455831 0.004127331 -0.5338278
0.8456315 0.003757058 -0.5337539
0.8456754 0.003393742 -0.5336869
0.8457148 0.00303671 -0.5336266
0.8457498 0.0026853 -0.5335729
0.8457806 0.002338863 -0.5335258
0.8458071 0.001996756 -0.5334851
0.8458295 0.001658346 -0.5334508
0.8458477 0.001323007 -0.5334228
0.8458619 0.000990117 -0.5334011
0.845872 0.0006590604 -0.5333856
0.845878 0.000329224 -0.5333763
0.84588 -2.780655e-09 -0.5333732
0.845878 -0.0003292296 -0.5333763
0.845872 -0.000659066 -0.5333856
0.8458619 -0.0009901226 -0.5334011
0.8458477 -0.001323012 -0.5334228
0.8458295 -0.001658352 -0.5334508
0.8458071 -0.001996762 -0.5334851
0.8457806 -0.002338868 -0.5335258
0.8457498 -0.002685306 -0.5335729
0.8457148 -0.003036715 -0.5336266
0.8456754 -0.003393747 -0.5336869
0.8456315 -0.003757063 -0.5337539
0.8455831 -0.004127336 -0.5338278
0.8455302 -0.004505252 -0.5339087
0.8454724 -0.00489151 -0.5339966
0.8454099 -0.005286826 -0.5340919
0.8453423 -0.005691933 -0.5341946
0.8452697 -0.00610758 -0.534305
0.8451918 -0.006534539 -0.5344231
0.8451085 -0.0069736 -0.5345493
0.8450196 -0.007425577 -0.5346838
0.844925 -0.007891309 -0.5348266
0.8448243 -0.008371657 -0.5349783
0.8447176 -0.008867514 -0.5351389
0.8446044 -0.009379798 -0.5353087
0.8444846 -0.009909461 -0.5354881
0.844358 -0.01045748 -0.5356773
0.8442242 -0.01102489 -0.5358767
0.8440831 -0.01161272 -0.5360866
0.8439342 -0.01222208 -0.5363074
0.8437774 -0.01285409 -0.5365394
0.8436122 -0.01350993 -0.5367829
0.8434383 -0.01419082 -0.5370385
0.8432554 -0.01489803 -0.5373065
0.8430631 -0.01563287 -0.5375874
0.8428609 -0.01639671 -0.5378816
0.8426485 -0.01719097 -0.5381895
0.8424254 -0.01801714 -0.5385117
0.842191 -0.01887676 -0.5388487