# vtk DataFile Version 2.0
Written badly by Kevin Korner
ASCII
DATASET POLYDATA
POINTS 350 FLOAT
0 0 0
0.00286533 0 0
0.005729555 -2.395571e-05 7.584898e-05
0.008590446 -6.988019e-05 0.0002285154
0.01144575 -0.0001357153 0.0004588288
0.01429318 -0.0002193369 0.000767474
0.01713045 -0.0003185609 0.001154987
0.01995526 -0.0004311492 0.001621752
0.02276532 -0.0005548166 0.002167993
0.02555834 -0.0006872373 0.00279378
0.02833205 -0.0008260522 0.003499019
0.03108421 -0.0009688767 0.004283455
0.0338126 -0.001113308 0.00514667
0.03651505 -0.001256932 0.006088086
0.03918942 -0.001397334 0.007106964
0.04183366 -0.001532102 0.008202405
0.04444573 -0.00165884 0.009373358
0.04702369 -0.00177517 0.01061862
0.04956568 -0.001878747 0.01193684
0.05206989 -0.001967257 0.01332652
0.05453461 -0.002038433 0.01478604
0.05695822 -0.002090057 0.01631364
0.05933919 -0.002119969 0.01790743
0.0616761 -0.002126071 0.01956543
0.0639676 -0.002106334 0.02128553
0.06621248 -0.002058807 0.02306552
0.0684096 -0.001981614 0.02490313
0.07055796 -0.001872966 0.02679598
0.07265665 -0.001731162 0.02874162
0.07470487 -0.001554592 0.03073755
0.07670193 -0.00134174 0.03278121
0.07864725 -0.001091187 0.03487
0.08054036 -0.000801615 0.03700129
0.08238089 -0.0004718039 0.03917241
0.08416859 -0.0001006357 0.04138069
0.08590328 0.0003129063 0.04362345
0.08758491 0.0007697375 0.04589799
0.08921351 0.001270672 0.04820164
0.09078922 0.001816426 0.05053175
0.09231224 0.002407614 0.05288569
0.09378288 0.003044757 0.05526085
0.09520152 0.003728279 0.05765467
0.09656862 0.004458515 0.06006463
0.09788471 0.005235708 0.06248826
0.0991504 0.006060017 0.06492314
0.1003663 0.006931515 0.06736693
0.1015333 0.007850198 0.06981732
0.1026519 0.008815985 0.0722721
0.1037232 0.009828722 0.07472911
0.1047479 0.01088819 0.07718626
0.105727 0.0119941 0.07964157
0.1066614 0.0131461 0.08209308
0.107552 0.01434379 0.08453897
0.1084 0.01558671 0.08697746
0.1092063 0.01687436 0.08940686
0.1099719 0.01820617 0.09182556
0.110698 0.01958157 0.09423205
0.1113856 0.02099992 0.09662487
0.1120359 0.02246055 0.09900266
0.1126498 0.02396276 0.1013641
0.1132285 0.02550584 0.1037081
0.1137731 0.02708903 0.1060334
0.1142847 0.02871157 0.108339
0.1147644 0.03037267 0.1106239
0.1152132 0.03207152 0.1128872
0.1156322 0.03380733 0.1151281
0.1160226 0.03557925 0.1173457
0.1163852 0.03738647 0.1195395
0.1167212 0.03922815 0.1217087
0.1170316 0.04110345 0.1238527
0.1173174 0.04301153 0.1259712
0.1175795 0.04495155 0.1280635
0.117819 0.04692269 0.1301292
0.1180367 0.0489241 0.1321681
0.1182336 0.05095497 0.1341798
0.1184105 0.05301448 0.1361641
0.1185684 0.05510181 0.1381206
0.1187081 0.05721618 0.1400494
0.1188305 0.05935679 0.1419502
0.1189362 0.06152287 0.1438229
0.1190262 0.06371365 0.1456674
0.1191012 0.06592838 0.1474839
0.1191618 0.06816632 0.1492722
0.1192089 0.07042675 0.1510324
0.1192432 0.07270896 0.1527646
0.1192652 0.07501226 0.1544688
0.1192756 0.07733596 0.1561453
0.1192751 0.07967941 0.157794
0.1192642 0.08204195 0.1594152
0.1192436 0.08442296 0.1610091
0.1192137 0.08682182 0.1625759
0.1191752 0.08923793 0.1641157
0.1191285 0.09167071 0.1656288
0.1190742 0.09411958 0.1671155
0.1190127 0.09658401 0.1685759
0.1189444 0.09906344 0.1700105
0.1188698 0.1015574 0.1714193
0.1187894 0.1040653 0.1728028
0.1187035 0.1065867 0.1741612
0.1186125 0.1091211 0.1754948
0.1185168 0.1116681 0.1768039
0.1184168 0.1142272 0.1780889
0.1183127 0.116798 0.1793499
0.118205 0.1193801 0.1805874
0.1180938 0.121973 0.1818017
0.1179796 0.1245765 0.182993
0.1178625 0.12719 0.1841617
0.1177429 0.1298133 0.1853081
0.117621 0.1324459 0.1864325
0.1174971 0.1350876 0.1875353
0.1173714 0.1377381 0.1886167
0.117244 0.140397 0.189677
0.1171153 0.143064 0.1907166
0.1169855 0.1457388 0.1917357
0.1168546 0.1484211 0.1927347
0.116723 0.1511108 0.1937138
0.1165907 0.1538074 0.1946733
0.116458 0.1565108 0.1956135
0.1163249 0.1592208 0.1965347
0.1161917 0.161937 0.1974371
0.1160586 0.1646594 0.198321
0.1159255 0.1673876 0.1991867
0.1157927 0.1701214 0.2000343
0.1156603 0.1728608 0.2008641
0.1155283 0.1756054 0.2016764
0.115397 0.1783551 0.2024713
0.1152665 0.1811098 0.2032491
0.1151367 0.1838692 0.20401
0.1150079 0.1866332 0.2047541
0.1148801 0.1894017 0.2054817
0.1147534 0.1921745 0.2061928
0.114628 0.1949514 0.2068877
0.1145038 0.1977324 0.2075666
0.1143811 0.2005173 0.2082294
0.1142598 0.203306 0.2088765
0.11414 0.2060983 0.2095079
0.1140219 0.2088942 0.2101237
0.1139054 0.2116935 0.210724
0.1137908 0.2144961 0.2113089
0.1136779 0.217302 0.2118784
0.1135671 0.220111 0.2124328
0.1134582 0.2229231 0.2129719
0.1133513 0.2257381 0.2134959
0.1132466 0.2285559 0.2140048
0.1131442 0.2313765 0.2144986
0.1130439 0.2341998 0.2149774
0.1129461 0.2370256 0.2154411
0.1128506 0.239854 0.2158898
0.1127577 0.2426848 0.2163235
0.1126673 0.2455179 0.216742
0.1125795 0.2483534 0.2171455
0.1124945 0.251191 0.2175339
0.1124122 0.2540307 0.217907
0.1123327 0.2568725 0.218265
0.1122562 0.2597162 0.2186077
0.1121827 0.2625618 0.218935
0.1121122 0.2654093 0.2192469
0.1120449 0.2682584 0.2195432
0.1119807 0.2711093 0.219824
0.1119199 0.2739616 0.2200891
0.1118624 0.2768155 0.2203384
0.1118083 0.2796708 0.2205718
0.1117577 0.2825274 0.2207892
0.1117107 0.2853853 0.2209905
0.1116673 0.2882443 0.2211755
0.1116276 0.2911044 0.2213442
0.1115916 0.2939655 0.2214964
0.1115595 0.2968274 0.2216321
0.1115313 0.2996901 0.221751
0.111507 0.3025535 0.2218532
0.1114866 0.3054175 0.2219385
0.1114703 0.308282 0.2220069
0.111458 0.3111468 0.2220582
0.1114499 0.3140119 0.2220925
0.1114458 0.3168772 0.2221096
0.1114458 0.3197426 0.2221096
0.1114499 0.3226078 0.2220925
0.111458 0.3254729 0.2220582
0.1114703 0.3283378 0.2220069
0.1114866 0.3312023 0.2219385
0.111507 0.3340662 0.2218532
0.1115313 0.3369296 0.221751
0.1115595 0.3397924 0.2216321
0.1115916 0.3426543 0.2214964
0.1116276 0.3455154 0.2213442
0.1116673 0.3483754 0.2211755
0.1117107 0.3512345 0.2209905
0.1117577 0.3540923 0.2207892
0.1118083 0.3569489 0.2205718
0.1118624 0.3598042 0.2203384
0.1119199 0.3626581 0.2200891
0.1119807 0.3655105 0.219824
0.1120449 0.3683613 0.2195432
0.1121122 0.3712105 0.2192469
0.1121827 0.3740579 0.218935
0.1122562 0.3769036 0.2186077
0.1123327 0.3797473 0.218265
0.1124122 0.3825891 0.217907
0.1124945 0.3854288 0.2175339
0.1125795 0.3882664 0.2171455
0.1126673 0.3911018 0.216742
0.1127577 0.393935 0.2163235
0.1128506 0.3967658 0.2158898
0.1129461 0.3995942 0.2154411
0.1130439 0.40242 0.2149774
0.1131442 0.4052433 0.2144986
0.1132466 0.4080639 0.2140048
0.1133513 0.4108817 0.2134959
0.1134582 0.4136967 0.2129719
0.1135671 0.4165087 0.2124328
0.1136779 0.4193177 0.2118784
0.1137908 0.4221236 0.2113089
0.1139054 0.4249263 0.210724
0.1140219 0.4277256 0.2101237
0.11414 0.4305215 0.2095079
0.1142598 0.4333138 0.2088765
0.1143811 0.4361025 0.2082294
0.1145038 0.4388874 0.2075666
0.114628 0.4416684 0.2068877
0.1147534 0.4444453 0.2061928
0.1148801 0.4472181 0.2054817
0.1150079 0.4499866 0.2047541
0.1151367 0.4527506 0.20401
0.1152665 0.45551 0.2032491
0.115397 0.4582647 0.2024713
0.1155283 0.4610144 0.2016764
0.1156603 0.463759 0.2008641
0.1157927 0.4664983 0.2000343
0.1159255 0.4692322 0.1991867
0.1160586 0.4719604 0.198321
0.1161917 0.4746827 0.1974371
0.1163249 0.477399 0.1965347
0.116458 0.4801089 0.1956135
0.1165907 0.4828124 0.1946733
0.116723 0.485509 0.1937138
0.1168546 0.4881986 0.1927347
0.1169855 0.490881 0.1917357
0.1171153 0.4935558 0.1907166
0.117244 0.4962228 0.189677
0.1173714 0.4988817 0.1886167
0.1174971 0.5015321 0.1875353
0.117621 0.5041739 0.1864325
0.1177429 0.5068065 0.1853081
0.1178625 0.5094298 0.1841617
0.1179796 0.5120433 0.182993
0.1180938 0.5146467 0.1818017
0.118205 0.5172397 0.1805874
0.1183127 0.5198218 0.1793499
0.1184168 0.5223926 0.1780889
0.1185168 0.5249517 0.1768039
0.1186125 0.5274987 0.1754948
0.1187035 0.5300331 0.1741612
0.1187894 0.5325545 0.1728028
0.1188698 0.5350624 0.1714193
0.1189444 0.5375563 0.1700105
0.1190127 0.5400358 0.1685759
0.1190742 0.5425002 0.1671155
0.1191285 0.5449491 0.1656288
0.1191752 0.5473818 0.1641157
0.1192137 0.5497979 0.1625759
0.1192436 0.5521968 0.1610091
0.1192642 0.5545778 0.1594152
0.1192751 0.5569404 0.157794
0.1192756 0.5592838 0.1561453
0.1192652 0.5616075 0.1544688
0.1192432 0.5639108 0.1527646
0.1192089 0.566193 0.1510324
0.1191618 0.5684535 0.1492722
0.1191012 0.5706914 0.1474839
0.1190262 0.5729061 0.1456674
0.1189362 0.5750969 0.1438229
0.1188305 0.577263 0.1419502
0.1187081 0.5794036 0.1400494
0.1185684 0.581518 0.1381206
0.1184105 0.5836053 0.1361641
0.1182336 0.5856648 0.1341798
0.1180367 0.5876957 0.1321681
0.117819 0.5896971 0.1301292
0.1175795 0.5916682 0.1280635
0.1173174 0.5936082 0.1259712
0.1170316 0.5955163 0.1238527
0.1167212 0.5973916 0.1217087
0.1163852 0.5992333 0.1195395
0.1160226 0.6010405 0.1173457
0.1156322 0.6028124 0.1151281
0.1152132 0.6045482 0.1128872
0.1147644 0.6062471 0.1106239
0.1142847 0.6079082 0.108339
0.1137731 0.6095307 0.1060334
0.1132285 0.6111139 0.1037081
0.1126498 0.612657 0.1013641
0.1120359 0.6141592 0.09900266
0.1113856 0.6156199 0.09662487
0.110698 0.6170382 0.09423205
0.1099719 0.6184136 0.09182556
0.1092063 0.6197454 0.08940686
0.1084 0.6210331 0.08697746
0.107552 0.622276 0.08453897
0.1066614 0.6234737 0.08209308
0.105727 0.6246257 0.07964157
0.1047479 0.6257316 0.07718626
0.1037232 0.6267911 0.07472911
0.1026519 0.6278038 0.0722721
0.1015333 0.6287696 0.06981732
0.1003663 0.6296883 0.06736693
0.0991504 0.6305598 0.06492314
0.09788471 0.6313841 0.06248826
0.09656862 0.6321613 0.06006463
0.09520152 0.6328915 0.05765467
0.09378288 0.633575 0.05526085
0.09231224 0.6342122 0.05288569
0.09078922 0.6348033 0.05053175
0.08921351 0.6353491 0.04820164
0.08758491 0.63585 0.04589799
0.08590328 0.6363069 0.04362345
0.08416859 0.6367204 0.04138069
0.08238089 0.6370916 0.03917241
0.08054036 0.6374214 0.03700129
0.07864725 0.637711 0.03487
0.07670193 0.6379615 0.03278121
0.07470487 0.6381744 0.03073755
0.07265665 0.6383509 0.02874162
0.07055796 0.6384927 0.02679598
0.0684096 0.6386014 0.02490313
0.06621248 0.6386786 0.02306552
0.0639676 0.6387261 0.02128553
0.0616761 0.6387458 0.01956543
0.05933919 0.6387397 0.01790743
0.05695822 0.6387098 0.01631364
0.05453461 0.6386582 0.01478604
0.05206989 0.638587 0.01332652
0.04956568 0.6384985 0.01193684
0.04702369 0.6383949 0.01061862
0.04444573 0.6382786 0.009373358
0.04183366 0.6381519 0.008202405
0.03918942 0.6380171 0.007106964
0.03651505 0.6378767 0.006088086
0.0338126 0.6377331 0.00514667
0.03108421 0.6375886 0.004283455
0.02833205 0.6374458 0.003499019
0.02555834 0.637307 0.00279378
0.02276532 0.6371746 0.002167993
0.01995526 0.6370509 0.001621752
0.01713045 0.6369383 0.001154987
0.01429318 0.6368391 0.000767474
0.01144575 0.6367555 0.0004588288
0.008590446 0.6366897 0.0002285154
0.005729555 0.6366437 7.584898e-05
0.00286533 0.6366198 0
0 0.6366198 0

LINES 349 1047
2 0 1
2 1 2
2 2 3
2 3 4
2 4 5
2 5 6
2 6 7
2 7 8
2 8 9
2 9 10
2 10 11
2 11 12
2 12 13
2 13 14
2 14 15
2 15 16
2 16 17
2 17 18
2 18 19
2 19 20
2 20 21
2 21 22
2 22 23
2 23 24
2 24 25
2 25 26
2 26 27
2 27 28
2 28 29
2 29 30
2 30 31
2 31 32
2 32 33
2 33 34
2 34 35
2 35 36
2 36 37
2 37 38
2 38 39
2 39 40
2 40 41
2 41 42
2 42 43
2 43 44
2 44 45
2 45 46
2 46 47
2 47 48
2 48 49
2 49 50
2 50 51
2 51 52
2 52 53
2 53 54
2 54 55
2 55 56
2 56 57
2 57 58
2 58 59
2 59 60
2 60 61
2 61 62
2 62 63
2 63 64
2 64 65
2 65 66
2 66 67
2 67 68
2 68 69
2 69 70
2 70 71
2 71 72
2 72 73
2 73 74
2 74 75
2 75 76
2 76 77
2 77 78
2 78 79
2 79 80
2 80 81
2 81 82
2 82 83
2 83 84
2 84 85
2 85 86
2 86 87
2 87 88
2 88 89
2 89 90
2 90 91
2 91 92
2 92 93
2 93 94
2 94 95
2 95 96
2 96 97
2 97 98
2 98 99
2 99 100
2 100 101
2 101 102
2 102 103
2 103 104
2 104 105
2 105 106
2 106 107
2 107 108
2 108 109
2 109 110
2 110 111
2 111 112
2 112 113
2 113 114
2 114 115
2 115 116
2 116 117
2 117 118
2 118 119
2 119 120
2 120 121
2 121 122
2 122 123
2 123 124
2 124 125
2 125 126
2 126 127
2 127 128
2 128 129
2 129 130
2 130 131
2 131 132
2 132 133
2 133 134
2 134 135
2 135 136
2 136 137
2 137 138
2 138 139
2 139 140
2 140 141
2 141 142
2 142 143
2 143 144
2 144 145
2 145 146
2 146 147
2 147 148
2 148 149
2 149 150
2 150 151
2 151 152
2 152 153
2 153 154
2 154 155
2 155 156
2 156 157
2 157 158
2 158 159
2 159 160
2 160 161
2 161 162
2 162 163
2 163 164
2 164 165
2 165 166
2 166 167
2 167 168
2 168 169
2 169 170
2 170 171
2 171 172
2 172 173
2 173 174
2 174 175
2 175 176
2 176 177
2 177 178
2 178 179
2 179 180
2 180 181
2 181 182
2 182 183
2 183 184
2 184 185
2 185 186
2 186 187
2 187 188
2 188 189
2 189 190
2 190 191
2 191 192
2 192 193
2 193 194
2 194 195
2 195 196
2 196 197
2 197 198
2 198 199
2 199 200
2 200 201
2 201 202
2 202 203
2 203 204
2 204 205
2 205 206
2 206 207
2 207 208
2 208 209
2 209 210
2 210 211
2 211 212
2 212 213
2 213 214
2 214 215
2 215 216
2 216 217
2 217 218
2 218 219
2 219 220
2 220 221
2 221 222
2 222 223
2 223 224
2 224 225
2 225 226
2 226 227
2 227 228
2 228 229
2 229 230
2 230 231
2 231 232
2 232 233
2 233 234
2 234 235
2 235 236
2 236 237
2 237 238
2 238 239
2 239 240
2 240 241
2 241 242
2 242 243
2 243 244
2 244 245
2 245 246
2 246 247
2 247 248
2 248 249
2 249 250
2 250 251
2 251 252
2 252 253
2 253 254
2 254 255
2 255 256
2 256 257
2 257 258
2 258 259
2 259 260
2 260 261
2 261 262
2 262 263
2 263 264
2 264 265
2 265 266
2 266 267
2 267 268
2 268 269
2 269 270
2 270 271
2 271 272
2 272 273
2 273 274
2 274 275
2 275 276
2 276 277
2 277 278
2 278 279
2 279 280
2 280 281
2 281 282
2 282 283
2 283 284
2 284 285
2 285 286
2 286 287
2 287 288
2 288 289
2 289 290
2 290 291
2 291 292
2 292 293
2 293 294
2 294 295
2 295 296
2 296 297
2 297 298
2 298 299
2 299 300
2 300 301
2 301 302
2 302 303
2 303 304
2 304 305
2 305 306
2 306 307
2 307 308
2 308 309
2 309 310
2 310 311
2 311 312
2 312 313
2 313 314
2 314 315
2 315 316
2 316 317
2 317 318
2 318 319
2 319 320
2 320 321
2 321 322
2 322 323
2 323 324
2 324 325
2 325 326
2 326 327
2 327 328
2 328 329
2 329 330
2 330 331
2 331 332
2 332 333
2 333 334
2 334 335
2 335 336
2 336 337
2 337 338
2 338 339
2 339 340
2 340 341
2 341 342
2 342 343
2 343 344
2 344 345
2 345 346
2 346 347
2 347 348
2 348 349


POINT_DATA 350
SCALARS a FLOAT 1
LOOKUP_TABLE default
0.0005894628
0.0005894628
0.0005894628
0.0005894628
0.0005894628
0.0005894628
0.0005894628
0.0005894628
0.0005894628
0.0005894628
0.0005894628
0.0005894628
0.0005894628
0.0005894628
0.0005894628
0.0005894628
0.0005894628
0.0005894628
0.0005894628
0.0005894628
0.0005894628
0.0005894628
0.0005894628
0.0005894628
0.0005894628
0.0005894628
0.0005894628
0.0005894628
0.0005894628
0.0005894628
0.0005894628
0.0005894628
0.0005894628
0.0005894628
0.0005894628
0.0005894628
0.0005894628
0.0005894628
0.0005894628
0.0005894628
0.0005894628
0.0005894628
0.0005894628
0.0005894628
0.0005894628
0.0005894628
0.0005894628
0.0005894628
0.0005894628
0.0005894628
0.0005894628
0.0005894628
0.0005894628
0.0005894628
0.0005894628
0.0005894628
0.0005894628
0.0005894628
0.0005894628
0.0005894628
0.0005894628
0.0005894628
0.0005894628
0.0005894628
0.0005894628
0.0005894628
0.0005894628
0.0005894628
0.0005894628
0.0005894628
0.0005894628
0.0005894628
0.0005894628
0.0005894628
0.0005894628
0.0005894628
0.0005894628
0.0005894628
0.0005894628
0.0005894628
0.0005894628
0.0005894628
0.0005894628
0.0005894628
0.0005894628
0.0005894628
0.0005894628
0.0005894628
0.0005894628
0.0005894628
0.0005894628
0.0005894628
0.0005894628
0.0005894628
0.0005894628
0.0005894628
0.0005894628
0.0005894628
0.0005894628
0.0005894628
0.0005894628
0.0005894628
0.0005894628
0.0005894628
0.0005894628
0.0005894628
0.0005894628
0.0005894628
0.0005894628
0.0005894628
0.0005894628
0.0005894628
0.0005894628
0.0005894628
0.0005894628
0.0005894628
0.0005894628
0.0005894628
0.0005894628
0.0005894628
0.0005894628
0.0005894628
0.0005894628
0.0005894628
0.0005894628
0.0005894628
0.0005894628
0.0005894628
0.0005894628
0.0005894628
0.0005894628
0.0005894628
0.0005894628
0.0005894628
0.0005894628
0.0005894628
0.0005894628
0.0005894628
0.0005894628
0.0005894628
0.0005894628
0.0005894628
0.0005894628
0.0005894628
0.0005894628
0.0005894628
0.0005894628
0.0005894628
0.0005894628
0.0005894628
0.0005894628
0.0005894628
0.0005894628
0.0005894628
0.0005894628
0.0005894628
0.0005894628
0.0005894628
0.0005894628
0.0005894628
0.0005894628
0.0005894628
0.0005894628
0.0005894628
0.0005894628
0.0005894628
0.0005894628
0.0005894628
0.0005894628
0.0005894628
0.0005894628
0.0005894628
0.0005894628
0.0005894628
0.0005894628
0.0005894628
0.0005894628
0.0005894628
0.0005894628
0.0005894628
0.0005894628
0.0005894628
0.0005894628
0.0005894628
0.0005894628
0.0005894628
0.0005894628
0.0005894628
0.0005894628
0.0005894628
0.0005894628
0.0005894628
0.0005894628
0.0005894628
0.0005894628
0.0005894628
0.0005894628
0.0005894628
0.0005894628
0.0005894628
0.0005894628
0.0005894628
0.0005894628
0.0005894628
0.0005894628
0.0005894628
0.0005894628
0.0005894628
0.0005894628
0.0005894628
0.0005894628
0.0005894628
0.0005894628
0.0005894628
0.0005894628
0.0005894628
0.0005894628
0.0005894628
0.0005894628
0.0005894628
0.0005894628
0.0005894628
0.0005894628
0.0005894628
0.0005894628
0.0005894628
0.0005894628
0.0005894628
0.0005894628
0.0005894628
0.0005894628
0.0005894628
0.0005894628
0.0005894628
0.0005894628
0.0005894628
0.0005894628
0.0005894628
0.0005894628
0.0005894628
0.0005894628
0.0005894628
0.0005894628
0.0005894628
0.0005894628
0.0005894628
0.0005894628
0.0005894628
0.0005894628
0.0005894628
0.0005894628
0.0005894628
0.0005894628
0.0005894628
0.0005894628
0.0005894628
0.0005894628
0.0005894628
0.0005894628
0.0005894628
0.0005894628
0.0005894628
0.0005894628
0.0005894628
0.0005894628
0.0005894628
0.0005894628
0.0005894628
0.0005894628
0.0005894628
0.0005894628
0.0005894628
0.0005894628
0.0005894628
0.0005894628
0.0005894628
0.0005894628
0.0005894628
0.0005894628
0.0005894628
0.0005894628
0.0005894628
0.0005894628
0.0005894628
0.0005894628
0.0005894628
0.0005894628
0.0005894628
0.0005894628
0.0005894628
0.0005894628
0.0005894628
0.0005894628
0.0005894628
0.0005894628
0.0005894628
0.0005894628
0.0005894628
0.0005894628
0.0005894628
0.0005894628
0.0005894628
0.0005894628
0.0005894628
0.0005894628
0.0005894628
0.0005894628
0.0005894628
0.0005894628
0.0005894628
0.0005894628
0.0005894628
0.0005894628
0.0005894628
0.0005894628
0.0005894628
0.0005894628
0.0005894628
0.0005894628
0.0005894628
0.0005894628
0.0005894628
0.0005894628
0.0005894628
0.0005894628
0.0005894628
0.0005894628
0.0005894628
0.0005894628
0.0005894628
0.0005894628
0.0005894628
0.0005894628
0.0005894628
0.0005894628
0.0005894628
0.0005894628
0.0005894628
0.0005894628
0.0005894628
0.0005894628
0.0005894628
0.0005894628
0.0005894628
0.0005894628
0.0005894628
0.0005894628
0.0005894628
0.0005894628
0.0005894628


SCALARS b FLOAT 1
LOOKUP_TABLE default
0.04420971
0.04420971
0.04420971
0.04420971
0.04420971
0.04420971
0.04420971
0.04420971
0.04420971
0.04420971
0.04420971
0.04420971
0.04420971
0.04420971
0.04420971
0.04420971
0.04420971
0.04420971
0.04420971
0.04420971
0.04420971
0.04420971
0.04420971
0.04420971
0.04420971
0.04420971
0.04420971
0.04420971
0.04420971
0.04420971
0.04420971
0.04420971
0.04420971
0.04420971
0.04420971
0.04420971
0.04420971
0.04420971
0.04420971
0.04420971
0.04420971
0.04420971
0.04420971
0.04420971
0.04420971
0.04420971
0.04420971
0.04420971
0.04420971
0.04420971
0.04420971
0.04420971
0.04420971
0.04420971
0.04420971
0.04420971
0.04420971
0.04420971
0.04420971
0.04420971
0.04420971
0.04420971
0.04420971
0.04420971
0.04420971
0.04420971
0.04420971
0.04420971
0.04420971
0.04420971
0.04420971
0.04420971
0.04420971
0.04420971
0.04420971
0.04420971
0.04420971
0.04420971
0.04420971
0.04420971
0.04420971
0.04420971
0.04420971
0.04420971
0.04420971
0.04420971
0.04420971
0.04420971
0.04420971
0.04420971
0.04420971
0.04420971
0.04420971
0.04420971
0.04420971
0.04420971
0.04420971
0.04420971
0.04420971
0.04420971
0.04420971
0.04420971
0.04420971
0.04420971
0.04420971
0.04420971
0.04420971
0.04420971
0.04420971
0.04420971
0.04420971
0.04420971
0.04420971
0.04420971
0.04420971
0.04420971
0.04420971
0.04420971
0.04420971
0.04420971
0.04420971
0.04420971
0.04420971
0.04420971
0.04420971
0.04420971
0.04420971
0.04420971
0.04420971
0.04420971
0.04420971
0.04420971
0.04420971
0.04420971
0.04420971
0.04420971
0.04420971
0.04420971
0.04420971
0.04420971
0.04420971
0.04420971
0.04420971
0.04420971
0.04420971
0.04420971
0.04420971
0.04420971
0.04420971
0.04420971
0.04420971
0.04420971
0.04420971
0.04420971
0.04420971
0.04420971
0.04420971
0.04420971
0.04420971
0.04420971
0.04420971
0.04420971
0.04420971
0.04420971
0.04420971
0.04420971
0.04420971
0.04420971
0.04420971
0.04420971
0.04420971
0.04420971
0.04420971
0.04420971
0.04420971
0.04420971
0.04420971
0.04420971
0.04420971
0.04420971
0.04420971
0.04420971
0.04420971
0.04420971
0.04420971
0.04420971
0.04420971
0.04420971
0.04420971
0.04420971
0.04420971
0.04420971
0.04420971
0.04420971
0.04420971
0.04420971
0.04420971
0.04420971
0.04420971
0.04420971
0.04420971
0.04420971
0.04420971
0.04420971
0.04420971
0.04420971
0.04420971
0.04420971
0.04420971
0.04420971
0.04420971
0.04420971
0.04420971
0.04420971
0.04420971
0.04420971
0.04420971
0.04420971
0.04420971
0.04420971
0.04420971
0.04420971
0.04420971
0.04420971
0.04420971
0.04420971
0.04420971
0.04420971
0.04420971
0.04420971
0.04420971
0.04420971
0.04420971
0.04420971
0.04420971
0.04420971
0.04420971
0.04420971
0.04420971
0.04420971
0.04420971
0.04420971
0.04420971
0.04420971
0.04420971
0.04420971
0.04420971
0.04420971
0.04420971
0.04420971
0.04420971
0.04420971
0.04420971
0.04420971
0.04420971
0.04420971
0.04420971
0.04420971
0.04420971
0.04420971
0.04420971
0.04420971
0.04420971
0.04420971
0.04420971
0.04420971
0.04420971
0.04420971
0.04420971
0.04420971
0.04420971
0.04420971
0.04420971
0.04420971
0.04420971
0.04420971
0.04420971
0.04420971
0.04420971
0.04420971
0.04420971
0.04420971
0.04420971
0.04420971
0.04420971
0.04420971
0.04420971
0.04420971
0.04420971
0.04420971
0.04420971
0.04420971
0.04420971
0.04420971
0.04420971
0.04420971
0.04420971
0.04420971
0.04420971
0.04420971
0.04420971
0.04420971
0.04420971
0.04420971
0.04420971
0.04420971
0.04420971
0.04420971
0.04420971
0.04420971
0.04420971
0.04420971
0.04420971
0.04420971
0.04420971
0.04420971
0.04420971
0.04420971
0.04420971
0.04420971
0.04420971
0.04420971
0.04420971
0.04420971
0.04420971
0.04420971
0.04420971
0.04420971
0.04420971
0.04420971
0.04420971
0.04420971
0.04420971
0.04420971
0.04420971
0.04420971
0.04420971
0.04420971
0.04420971
0.04420971
0.04420971
0.04420971
0.04420971
0.04420971
0.04420971
0.04420971
0.04420971
0.04420971
0.04420971
0.04420971


VECTORS d1 FLOAT
0 -0.3140919 0.9493926
-0.02775758 -0.2879581 0.9572406
-0.0556182 -0.2612817 0.9636589
-0.08352806 -0.2341076 0.9686159
-0.1114323 -0.206483 0.9720842
-0.1392751 -0.1784575 0.9740407
-0.1670001 -0.1500828 0.9744671
-0.1945506 -0.1214122 0.9733494
-0.2218698 -0.09250068 0.9706788
-0.2489013 -0.06340448 0.9664513
-0.2755888 -0.03418094 0.9606677
-0.3018772 -0.004888131 0.9533343
-0.3277122 0.02441536 0.9444621
-0.353041 0.05367077 0.9340672
-0.3778122 0.08281942 0.9221708
-0.4019764 0.111803 0.9087987
-0.4254863 0.1405639 0.8939817
-0.4482968 0.1690455 0.8777549
-0.4703654 0.1971923 0.8601579
-0.4916525 0.2249504 0.8412343
-0.512121 0.2522677 0.8210317
-0.5317372 0.2790938 0.7996013
-0.5504703 0.3053808 0.7769975
-0.5682929 0.3310832 0.7532776
-0.585181 0.3561578 0.7285017
-0.601114 0.3805646 0.7027322
-0.6160744 0.404266 0.6760335
-0.6300485 0.4272278 0.6484715
-0.643026 0.4494185 0.6201134
-0.6549996 0.4708102 0.5910272
-0.6659658 0.4913779 0.5612818
-0.6759241 0.5110999 0.5309458
-0.684877 0.5299578 0.5000883
-0.6928302 0.5479362 0.4687774
-0.6997922 0.5650231 0.4370809
-0.7057744 0.5812095 0.4050654
-0.7107906 0.5964895 0.3727963
-0.714857 0.61086 0.3403375
-0.7179922 0.6243208 0.307751
-0.7202169 0.6368746 0.275097
-0.7215535 0.6485264 0.2424338
-0.7220262 0.6592837 0.209817
-0.7216608 0.6691565 0.1773
-0.7204843 0.6781567 0.1449338
-0.718525 0.6862984 0.1127667
-0.7158121 0.6935974 0.0808442
-0.7123755 0.7000711 0.04920918
-0.708246 0.7057387 0.01790174
-0.7034547 0.7106204 -0.01304079
-0.698033 0.7147379 -0.04358388
-0.6920127 0.7181138 -0.07369573
-0.6854253 0.7207714 -0.1033473
-0.6783026 0.7227352 -0.1325122
-0.6706759 0.7240298 -0.1611666
-0.6625762 0.7246808 -0.1892894
-0.6540345 0.7247136 -0.2168618
-0.6450807 0.7241544 -0.2438676
-0.6357445 0.7230289 -0.2702926
-0.6260549 0.7213635 -0.296125
-0.6160401 0.7191839 -0.3213552
-0.6057276 0.7165159 -0.3459754
-0.595144 0.7133853 -0.3699798
-0.5843151 0.7098171 -0.3933645
-0.5732658 0.7058362 -0.416127
-0.56202 0.701467 -0.4382667
-0.5506008 0.6967333 -0.4597842
-0.5390302 0.6916586 -0.4806817
-0.5273294 0.6862655 -0.5009625
-0.5155185 0.6805762 -0.5206311
-0.5036166 0.6746122 -0.5396931
-0.4916422 0.6683942 -0.5581552
-0.4796123 0.6619423 -0.5760246
-0.4675434 0.655276 -0.5933098
-0.4554509 0.6484139 -0.6100196
-0.4433493 0.641374 -0.6261636
-0.4312523 0.6341734 -0.6417519
-0.4191727 0.6268288 -0.6567952
-0.4071225 0.6193557 -0.6713046
-0.3951127 0.6117694 -0.6852913
-0.3831539 0.604084 -0.6987672
-0.3712556 0.5963134 -0.7117441
-0.3594267 0.5884703 -0.7242342
-0.3476754 0.5805671 -0.7362497
-0.3360094 0.5726155 -0.7478029
-0.3244353 0.5646262 -0.7589064
-0.3129597 0.5566098 -0.7695724
-0.301588 0.5485759 -0.7798135
-0.2903256 0.5405337 -0.7896419
-0.279177 0.5324917 -0.79907
-0.2681464 0.5244578 -0.8081098
-0.2572373 0.5164396 -0.8167736
-0.2464531 0.508444 -0.8250731
-0.2357963 0.5004775 -0.83302
-0.2252696 0.4925459 -0.8406261
-0.2148747 0.4846548 -0.8479025
-0.2046134 0.4768091 -0.8548605
-0.1944871 0.4690135 -0.8615109
-0.1844966 0.4612723 -0.8678646
-0.1746427 0.453589 -0.8739319
-0.164926 0.4459673 -0.879723
-0.1553464 0.43841 -0.8852481
-0.1459042 0.43092 -0.8905167
-0.1365989 0.4234995 -0.8955383
-0.1274301 0.4161506 -0.9003223
-0.1183972 0.408875 -0.9048775
-0.1094995 0.4016741 -0.9092127
-0.1007358 0.394549 -0.9133364
-0.09210532 0.3875007 -0.9172567
-0.08360666 0.3805296 -0.9209816
-0.07523853 0.3736362 -0.9245189
-0.06699952 0.3668205 -0.927876
-0.05888813 0.3600824 -0.9310601
-0.05090277 0.3534215 -0.9340782
-0.04304178 0.3468374 -0.9369372
-0.03530349 0.3403291 -0.9396434
-0.02768613 0.3338957 -0.9422033
-0.02018795 0.3275361 -0.944623
-0.01280714 0.321249 -0.9469082
-0.005541906 0.3150327 -0.9490646
0.001609573 0.3088857 -0.9510978
0.008649096 0.3028061 -0.9530129
0.01557845 0.2967919 -0.9548151
0.02239939 0.290841 -0.9565092
0.02911366 0.2849512 -0.9580998
0.03572293 0.2791201 -0.9595915
0.04222885 0.2733451 -0.9609886
0.04863299 0.2676238 -0.9622953
0.05493686 0.2619535 -0.9635156
0.06114189 0.2563313 -0.9646533
0.06724944 0.2507544 -0.965712
0.07326078 0.2452199 -0.9666954
0.07917707 0.2397248 -0.9676069
0.08499937 0.234266 -0.9684495
0.09072863 0.2288406 -0.9692266
0.09636568 0.2234454 -0.9699411
0.1019112 0.2180771 -0.9705959
0.1073659 0.2127328 -0.9711938
0.11273 0.2074091 -0.9717373
0.1180039 0.2021028 -0.9722292
0.1231877 0.1968109 -0.9726717
0.1282814 0.1915301 -0.9730674
0.1332848 0.1862572 -0.9734184
0.1381975 0.180989 -0.9737271
0.1430189 0.1757224 -0.9739955
0.1477483 0.1704544 -0.9742257
0.1523847 0.1651817 -0.9744198
0.1569269 0.1599014 -0.9745797
0.1613734 0.1546103 -0.9747073
0.1657226 0.1493057 -0.9748045
0.1699726 0.1439845 -0.9748732
0.1741211 0.1386439 -0.9749152
0.1781657 0.133281 -0.9749324
0.1821035 0.1278933 -0.9749265
0.1859314 0.122478 -0.9748993
0.1896459 0.1170326 -0.9748527
0.1932432 0.1115547 -0.9747885
0.1967189 0.1060419 -0.9747086
0.2000684 0.1004923 -0.9746148
0.2032866 0.09490371 -0.974509
0.2063677 0.08927452 -0.9743934
0.2093059 0.08360319 -0.9742698
0.2120944 0.07788851 -0.9741403
0.2147263 0.07212963 -0.9740071
0.217194 0.06632607 -0.9738725
0.2194894 0.06047783 -0.9737386
0.2216041 0.05458545 -0.9736077
0.2235295 0.04865005 -0.9734823
0.2252566 0.04267347 -0.9733645
0.2267765 0.03665826 -0.9732567
0.2280806 0.03060779 -0.973161
0.2291605 0.02452626 -0.9730796
0.2300091 0.01841866 -0.9730142
0.2306199 0.01229076 -0.9729663
0.2309884 0.006148921 -0.9729371
0.2311116 -6.996038e-10 -0.9729272
0.2309884 -0.006148922 -0.9729371
0.2306199 -0.01229076 -0.9729663
0.2300091 -0.01841867 -0.9730142
0.2291605 -0.02452626 -0.9730796
0.2280806 -0.03060779 -0.973161
0.2267765 -0.03665826 -0.9732567
0.2252566 -0.04267347 -0.9733645
0.2235295 -0.04865005 -0.9734823
0.2216041 -0.05458545 -0.9736077
0.2194894 -0.06047783 -0.9737386
0.217194 -0.06632607 -0.9738725
0.2147263 -0.07212963 -0.9740071
0.2120944 -0.07788851 -0.9741403
0.2093059 -0.08360319 -0.9742698
0.2063677 -0.08927452 -0.9743934
0.2032866 -0.09490371 -0.974509
0.2000684 -0.1004923 -0.9746148
0.1967189 -0.1060419 -0.9747086
0.1932432 -0.1115547 -0.9747885
0.1896459 -0.1170326 -0.9748527
0.1859314 -0.122478 -0.9748993
0.1821035 -0.1278933 -0.9749265
0.1781657 -0.133281 -0.9749324
0.1741211 -0.1386439 -0.9749152
0.1699726 -0.1439845 -0.9748732
0.1657226 -0.1493057 -0.9748045
0.1613734 -0.1546103 -0.9747073
0.1569269 -0.1599014 -0.9745797
0.1523847 -0.1651817 -0.9744198
0.1477483 -0.1704544 -0.9742257
0.1430189 -0.1757224 -0.9739955
0.1381975 -0.180989 -0.9737271
0.1332848 -0.1862572 -0.9734184
0.1282814 -0.1915301 -0.9730674
0.1231877 -0.1968109 -0.9726717
0.1180039 -0.2021028 -0.9722292
0.11273 -0.2074091 -0.9717373
0.1073659 -0.2127328 -0.9711938
0.1019112 -0.2180771 -0.9705959
0.09636568 -0.2234454 -0.9699411
0.09072863 -0.2288406 -0.9692266
0.08499937 -0.234266 -0.9684495
0.07917707 -0.2397248 -0.9676069
0.07326078 -0.2452199 -0.9666954
0.06724945 -0.2507544 -0.965712
0.06114189 -0.2563313 -0.9646533
0.05493686 -0.2619535 -0.9635156
0.04863299 -0.2676238 -0.9622953
0.04222885 -0.2733451 -0.9609886
0.03572294 -0.2791201 -0.9595915
0.02911366 -0.2849512 -0.9580998
0.0223994 -0.290841 -0.9565092
0.01557845 -0.2967919 -0.9548151
0.008649098 -0.3028061 -0.9530129
0.001609576 -0.3088857 -0.9510978
-0.005541903 -0.3150327 -0.9490646
-0.01280714 -0.321249 -0.9469082