# vtk DataFile Version 2.0
Written badly by Kevin Korner
ASCII
DATASET POLYDATA
POINTS 350 FLOAT
0 0 0
0.00286533 0 0
0.005730533 2.604043e-05 6.778733e-06
0.008595357 7.812541e-05 2.024606e-05
0.01145955 0.0001562564 4.031157e-05
0.01432286 0.0002604324 6.688467e-05
0.01718504 0.0003906497 9.987449e-05
0.02004584 0.0005469021 0.00013919
0.022905 0.0007291808 0.00018474
0.02576228 0.0009374745 0.0002364329
0.02861743 0.001171769 0.0002941774
0.0314702 0.001432049 0.0003578815
0.03432035 0.001718295 0.0004274534
0.03716763 0.002030485 0.0005028011
0.04001178 0.002368596 0.0005838325
0.04285258 0.002732601 0.0006704554
0.04568976 0.003122472 0.0007625774
0.0485231 0.003538178 0.000860106
0.05135234 0.003979684 0.0009629489
0.05417725 0.004446956 0.001071014
0.05699757 0.004939953 0.001184207
0.05981309 0.005458637 0.001302438
0.06262354 0.006002962 0.001425612
0.0654287 0.006572885 0.001553637
0.06822832 0.007168357 0.001686421
0.07102217 0.007789327 0.001823871
0.07381002 0.008435744 0.001965895
0.07659163 0.009107552 0.002112399
0.07936675 0.009804694 0.002263292
0.08213517 0.01052711 0.002418481
0.08489665 0.01127474 0.002577873
0.08765095 0.01204752 0.002741377
0.09039786 0.01284538 0.002908899
0.09313712 0.01366826 0.003080349
0.09586853 0.01451608 0.003255634
0.09859185 0.01538878 0.003434662
0.1013069 0.01628627 0.003617341
0.1040133 0.01720847 0.00380358
0.106711 0.01815532 0.003993288
0.1093997 0.01912673 0.004186373
0.1120793 0.02012262 0.004382744
0.1147493 0.02114289 0.004582311
0.1174098 0.02218747 0.004784982
0.1200603 0.02325625 0.004990667
0.1227008 0.02434916 0.005199277
0.125331 0.0254661 0.00541072
0.1279507 0.02660697 0.005624907
0.1305596 0.02777167 0.005841749
0.1331576 0.0289601 0.006061157
0.1357444 0.03017217 0.006283041
0.1383199 0.03140776 0.006507312
0.1408838 0.03266678 0.006733883
0.143436 0.03394911 0.006962665
0.1459761 0.03525464 0.00719357
0.1485041 0.03658327 0.007426511
0.1510197 0.03793488 0.007661401
0.1535226 0.03930935 0.007898152
0.1560128 0.04070657 0.008136678
0.15849 0.04212642 0.008376894
0.160954 0.04356878 0.008618712
0.1634046 0.04503353 0.008862049
0.1658416 0.04652053 0.009106818
0.1682648 0.04802967 0.009352935
0.1706741 0.04956082 0.009600316
0.1730692 0.05111385 0.009848877
0.1754499 0.05268862 0.01009853
0.1778161 0.054285 0.01034921
0.1801675 0.05590287 0.01060081
0.1825041 0.05754207 0.01085326
0.1848255 0.05920248 0.01110648
0.1871316 0.06088395 0.01136038
0.1894223 0.06258634 0.01161489
0.1916973 0.06430952 0.01186992
0.1939565 0.06605332 0.0121254
0.1961997 0.06781762 0.01238124
0.1984268 0.06960225 0.01263737
0.2006374 0.07140708 0.0128937
0.2028315 0.07323195 0.01315017
0.205009 0.0750767 0.01340669
0.2071695 0.07694118 0.01366319
0.2093131 0.07882524 0.01391958
0.2114394 0.08072873 0.0141758
0.2135483 0.08265147 0.01443177
0.2156397 0.08459332 0.01468741
0.2177134 0.0865541 0.01494265
0.2197693 0.08853366 0.01519742
0.2218071 0.09053184 0.01545164
0.2238268 0.09254846 0.01570524
0.2258281 0.09458336 0.01595816
0.227811 0.09663637 0.01621031
0.2297752 0.09870732 0.01646162
0.2317206 0.100796 0.01671204
0.2336471 0.1029024 0.01696148
0.2355545 0.1050261 0.01720988
0.2374426 0.1071671 0.01745718
0.2393114 0.1093252 0.01770329
0.2411606 0.1115001 0.01794817
0.2429902 0.1136918 0.01819173
0.2448 0.1159 0.01843392
0.2465898 0.1181246 0.01867467
0.2483596 0.1203653 0.01891392
0.2501091 0.122622 0.0191516
0.2518383 0.1248945 0.01938765
0.253547 0.1271826 0.019622
0.2552351 0.1294862 0.01985461
0.2569024 0.131805 0.02008539
0.2585489 0.1341388 0.02031431
0.2601744 0.1364875 0.02054129
0.2617787 0.1388509 0.02076627
0.2633618 0.1412288 0.02098921
0.2649236 0.1436209 0.02121004
0.2664639 0.1460271 0.0214287
0.2679826 0.1484472 0.02164515
0.2694796 0.150881 0.02185932
0.2709547 0.1533282 0.02207116
0.2724079 0.1557888 0.02228062
0.2738391 0.1582625 0.02248764
0.2752481 0.160749 0.02269218
0.2766349 0.1632483 0.02289417
0.2779993 0.16576 0.02309358
0.2793412 0.168284 0.02329035
0.2806605 0.1708201 0.02348444
0.2819572 0.1733681 0.02367579
0.2832311 0.1759277 0.02386435
0.2844822 0.1784988 0.02405009
0.2857102 0.1810811 0.02423296
0.2869153 0.1836745 0.0244129
0.2880972 0.1862787 0.02458988
0.2892558 0.1888935 0.02476386
0.2903912 0.1915188 0.02493479
0.2915031 0.1941542 0.02510262
0.2925916 0.1967996 0.02526733
0.2936565 0.1994548 0.02542886
0.2946977 0.2021196 0.02558719
0.2957152 0.2047937 0.02574227
0.2967089 0.2074769 0.02589406
0.2976787 0.210169 0.02604254
0.2986246 0.2128698 0.02618765
0.2995465 0.2155791 0.02632938
0.3004442 0.2182966 0.02646767
0.3013178 0.2210222 0.02660252
0.3021672 0.2237556 0.02673386
0.3029923 0.2264966 0.02686169
0.303793 0.2292449 0.02698597
0.3045694 0.2320005 0.02710666
0.3053212 0.2347629 0.02722375
0.3060486 0.2375321 0.02733719
0.3067513 0.2403077 0.02744698
0.3074294 0.2430896 0.02755307
0.3080829 0.2458776 0.02765544
0.3087116 0.2486713 0.02775408
0.3093155 0.2514707 0.02784895
0.3098946 0.2542754 0.02794004
0.3104489 0.2570853 0.02802732
0.3109782 0.2599 0.02811078
0.3114826 0.2627195 0.02819039
0.311962 0.2655434 0.02826613
0.3124164 0.2683716 0.02833799
0.3128457 0.2712037 0.02840595
0.3132499 0.2740397 0.02847
0.313629 0.2768792 0.02853012
0.313983 0.279722 0.02858629
0.3143118 0.2825679 0.0286385
0.3146154 0.2854167 0.02868675
0.3148938 0.2882682 0.02873101
0.3151469 0.291122 0.02877128
0.3153748 0.293978 0.02880755
0.3155774 0.296836 0.02883982
0.3157547 0.2996957 0.02886806
0.3159067 0.3025569 0.02889229
0.3160334 0.3054194 0.02891248
0.3161348 0.3082828 0.02892864
0.3162108 0.3111471 0.02894077
0.3162615 0.314012 0.02894885
0.3162868 0.3168772 0.02895289
0.3162868 0.3197426 0.02895289
0.3162615 0.3226078 0.02894885
0.3162108 0.3254726 0.02894077
0.3161348 0.3283369 0.02892864
0.3160334 0.3312004 0.02891248
0.3159067 0.3340629 0.02889229
0.3157547 0.3369241 0.02886806
0.3155774 0.3397838 0.02883982
0.3153748 0.3426417 0.02880755
0.3151469 0.3454978 0.02877128
0.3148938 0.3483516 0.02873101
0.3146154 0.351203 0.02868675
0.3143118 0.3540518 0.0286385
0.313983 0.3568978 0.02858629
0.313629 0.3597406 0.02853012
0.3132499 0.3625801 0.02847
0.3128457 0.365416 0.02840595
0.3124164 0.3682482 0.02833799
0.311962 0.3710764 0.02826613
0.3114826 0.3739003 0.02819039
0.3109782 0.3767197 0.02811078
0.3104489 0.3795345 0.02802732
0.3098946 0.3823444 0.02794004
0.3093155 0.3851491 0.02784895
0.3087116 0.3879485 0.02775408
0.3080829 0.3907422 0.02765544
0.3074294 0.3935302 0.02755307
0.3067513 0.3963121 0.02744698
0.3060486 0.3990877 0.02733719
0.3053212 0.4018569 0.02722375
0.3045694 0.4046193 0.02710666
0.303793 0.4073748 0.02698597
0.3029923 0.4101232 0.02686169
0.3021672 0.4128642 0.02673386
0.3013178 0.4155976 0.02660252
0.3004442 0.4183231 0.02646767
0.2995465 0.4210407 0.02632938
0.2986246 0.42375 0.02618765
0.2976787 0.4264508 0.02604254
0.2967089 0.4291429 0.02589406
0.2957152 0.4318261 0.02574227
0.2946977 0.4345002 0.02558719
0.2936565 0.4371649 0.02542886
0.2925916 0.4398201 0.02526733
0.2915031 0.4424655 0.02510262
0.2903912 0.445101 0.02493479
0.2892558 0.4477262 0.02476386
0.2880972 0.4503411 0.02458988
0.2869153 0.4529453 0.0244129
0.2857102 0.4555386 0.02423296
0.2844822 0.458121 0.02405009
0.2832311 0.4606921 0.02386435
0.2819572 0.4632517 0.02367579
0.2806605 0.4657997 0.02348444
0.2793412 0.4683358 0.02329035
0.2779993 0.4708598 0.02309358
0.2766349 0.4733715 0.02289417
0.2752481 0.4758708 0.02269218
0.2738391 0.4783573 0.02248764
0.2724079 0.480831 0.02228062
0.2709547 0.4832915 0.02207116
0.2694796 0.4857388 0.02185932
0.2679826 0.4881726 0.02164515
0.2664639 0.4905927 0.0214287
0.2649236 0.4929989 0.02121004
0.2633618 0.495391 0.02098921
0.2617787 0.4977689 0.02076627
0.2601744 0.5001322 0.02054129
0.2585489 0.5024809 0.02031431
0.2569024 0.5048148 0.02008539
0.2552351 0.5071336 0.01985461
0.253547 0.5094371 0.019622
0.2518383 0.5117253 0.01938765
0.2501091 0.5139978 0.0191516
0.2483596 0.5162545 0.01891392
0.2465898 0.5184952 0.01867467
0.2448 0.5207198 0.01843392
0.2429902 0.522928 0.01819173
0.2411606 0.5251197 0.01794817
0.2393114 0.5272946 0.01770329
0.2374426 0.5294527 0.01745718
0.2355545 0.5315937 0.01720988
0.2336471 0.5337174 0.01696148
0.2317206 0.5358237 0.01671204
0.2297752 0.5379124 0.01646162
0.227811 0.5399834 0.01621031
0.2258281 0.5420364 0.01595816
0.2238268 0.5440713 0.01570524
0.2218071 0.5460879 0.01545164
0.2197693 0.5480861 0.01519742
0.2177134 0.5500657 0.01494265
0.2156397 0.5520265 0.01468741
0.2135483 0.5539683 0.01443177
0.2114394 0.555891 0.0141758
0.2093131 0.5577945 0.01391958
0.2071695 0.5596786 0.01366319
0.205009 0.5615431 0.01340669
0.2028315 0.5633878 0.01315017
0.2006374 0.5652127 0.0128937
0.1984268 0.5670175 0.01263737
0.1961997 0.5688022 0.01238124
0.1939565 0.5705664 0.0121254
0.1916973 0.5723103 0.01186992
0.1894223 0.5740334 0.01161489
0.1871316 0.5757358 0.01136038
0.1848255 0.5774173 0.01110648
0.1825041 0.5790777 0.01085326
0.1801675 0.5807169 0.01060081
0.1778161 0.5823348 0.01034921
0.1754499 0.5839312 0.01009853
0.1730692 0.5855059 0.009848877
0.1706741 0.587059 0.009600316
0.1682648 0.5885901 0.009352935
0.1658416 0.5900992 0.009106818
0.1634046 0.5915862 0.008862049
0.160954 0.593051 0.008618712
0.15849 0.5944933 0.008376894
0.1560128 0.5959132 0.008136678
0.1535226 0.5973104 0.007898152
0.1510197 0.5986849 0.007661401
0.1485041 0.6000365 0.007426511
0.1459761 0.6013651 0.00719357
0.143436 0.6026707 0.006962665
0.1408838 0.603953 0.006733883
0.1383199 0.605212 0.006507312
0.1357444 0.6064476 0.006283041
0.1331576 0.6076597 0.006061157
0.1305596 0.6088481 0.005841749
0.1279507 0.6100128 0.005624907
0.125331 0.6111537 0.00541072
0.1227008 0.6122706 0.005199277
0.1200603 0.6133635 0.004990667
0.1174098 0.6144323 0.004784982
0.1147493 0.6154769 0.004582311
0.1120793 0.6164972 0.004382744
0.1093997 0.617493 0.004186373
0.106711 0.6184644 0.003993288
0.1040133 0.6194113 0.00380358
0.1013069 0.6203335 0.003617341
0.09859185 0.621231 0.003434662
0.09586853 0.6221037 0.003255634
0.09313712 0.6229515 0.003080349
0.09039786 0.6237744 0.002908899
0.08765095 0.6245723 0.002741377
0.08489665 0.625345 0.002577873
0.08213517 0.6260927 0.002418481
0.07936675 0.6268151 0.002263292
0.07659163 0.6275122 0.002112399
0.07381002 0.628184 0.001965895
0.07102217 0.6288304 0.001823871
0.06822832 0.6294514 0.001686421
0.0654287 0.6300469 0.001553637
0.06262354 0.6306168 0.001425612
0.05981309 0.6311611 0.001302438
0.05699757 0.6316798 0.001184207
0.05417725 0.6321728 0.001071014
0.05135234 0.6326401 0.0009629489
0.0485231 0.6330816 0.000860106
0.04568976 0.6334973 0.0007625774
0.04285258 0.6338872 0.0006704554
0.04001178 0.6342512 0.0005838325
0.03716763 0.6345893 0.0005028011
0.03432035 0.6349015 0.0004274534
0.0314702 0.6351877 0.0003578815
0.02861743 0.635448 0.0002941774
0.02576228 0.6356823 0.0002364329
0.022905 0.6358906 0.00018474
0.02004584 0.6360729 0.00013919
0.01718504 0.6362291 9.987449e-05
0.01432286 0.6363593 6.688467e-05
0.01145955 0.6364635 4.031157e-05
0.008595357 0.6365416 2.024606e-05
0.005730533 0.6365937 6.778733e-06
0.00286533 0.6366198 0
0 0.6366198 0

LINES 349 1047
2 0 1
2 1 2
2 2 3
2 3 4
2 4 5
2 5 6
2 6 7
2 7 8
2 8 9
2 9 10
2 10 11
2 11 12
2 12 13
2 13 14
2 14 15
2 15 16
2 16 17
2 17 18
2 18 19
2 19 20
2 20 21
2 21 22
2 22 23
2 23 24
2 24 25
2 25 26
2 26 27
2 27 28
2 28 29
2 29 30
2 30 31
2 31 32
2 32 33
2 33 34
2 34 35
2 35 36
2 36 37
2 37 38
2 38 39
2 39 40
2 40 41
2 41 42
2 42 43
2 43 44
2 44 45
2 45 46
2 46 47
2 47 48
2 48 49
2 49 50
2 50 51
2 51 52
2 52 53
2 53 54
2 54 55
2 55 56
2 56 57
2 57 58
2 58 59
2 59 60
2 60 61
2 61 62
2 62 63
2 63 64
2 64 65
2 65 66
2 66 67
2 67 68
2 68 69
2 69 70
2 70 71
2 71 72
2 72 73
2 73 74
2 74 75
2 75 76
2 76 77
2 77 78
2 78 79
2 79 80
2 80 81
2 81 82
2 82 83
2 83 84
2 84 85
2 85 86
2 86 87
2 87 88
2 88 89
2 89 90
2 90 91
2 91 92
2 92 93
2 93 94
2 94 95
2 95 96
2 96 97
2 97 98
2 98 99
2 99 100
2 100 101
2 101 102
2 102 103
2 103 104
2 104 105
2 105 106
2 106 107
2 107 108
2 108 109
2 109 110
2 110 111
2 111 112
2 112 113
2 113 114
2 114 115
2 115 116
2 116 117
2 117 118
2 118 119
2 119 120
2 120 121
2 121 122
2 122 123
2 123 124
2 124 125
2 125 126
2 126 127
2 127 128
2 128 129
2 129 130
2 130 131
2 131 132
2 132 133
2 133 134
2 134 135
2 135 136
2 136 137
2 137 138
2 138 139
2 139 140
2 140 141
2 141 142
2 142 143
2 143 144
2 144 145
2 145 146
2 146 147
2 147 148
2 148 149
2 149 150
2 150 151
2 151 152
2 152 153
2 153 154
2 154 155
2 155 156
2 156 157
2 157 158
2 158 159
2 159 160
2 160 161
2 161 162
2 162 163
2 163 164
2 164 165
2 165 166
2 166 167
2 167 168
2 168 169
2 169 170
2 170 171
2 171 172
2 172 173
2 173 174
2 174 175
2 175 176
2 176 177
2 177 178
2 178 179
2 179 180
2 180 181
2 181 182
2 182 183
2 183 184
2 184 185
2 185 186
2 186 187
2 187 188
2 188 189
2 189 190
2 190 191
2 191 192
2 192 193
2 193 194
2 194 195
2 195 196
2 196 197
2 197 198
2 198 199
2 199 200
2 200 201
2 201 202
2 202 203
2 203 204
2 204 205
2 205 206
2 206 207
2 207 208
2 208 209
2 209 210
2 210 211
2 211 212
2 212 213
2 213 214
2 214 215
2 215 216
2 216 217
2 217 218
2 218 219
2 219 220
2 220 221
2 221 222
2 222 223
2 223 224
2 224 225
2 225 226
2 226 227
2 227 228
2 228 229
2 229 230
2 230 231
2 231 232
2 232 233
2 233 234
2 234 235
2 235 236
2 236 237
2 237 238
2 238 239
2 239 240
2 240 241
2 241 242
2 242 243
2 243 244
2 244 245
2 245 246
2 246 247
2 247 248
2 248 249
2 249 250
2 250 251
2 251 252
2 252 253
2 253 254
2 254 255
2 255 256
2 256 257
2 257 258
2 258 259
2 259 260
2 260 261
2 261 262
2 262 263
2 263 264
2 264 265
2 265 266
2 266 267
2 267 268
2 268 269
2 269 270
2 270 271
2 271 272
2 272 273
2 273 274
2 274 275
2 275 276
2 276 277
2 277 278
2 278 279
2 279 280
2 280 281
2 281 282
2 282 283
2 283 284
2 284 285
2 285 286
2 286 287
2 287 288
2 288 289
2 289 290
2 290 291
2 291 292
2 292 293
2 293 294
2 294 295
2 295 296
2 296 297
2 297 298
2 298 299
2 299 300
2 300 301
2 301 302
2 302 303
2 303 304
2 304 305
2 305 306
2 306 307
2 307 308
2 308 309
2 309 310
2 310 311
2 311 312
2 312 313
2 313 314
2 314 315
2 315 316
2 316 317
2 317 318
2 318 319
2 319 320
2 320 321
2 321 322
2 322 323
2 323 324
2 324 325
2 325 326
2 326 327
2 327 328
2 328 329
2 329 330
2 330 331
2 331 332
2 332 333
2 333 334
2 334 335
2 335 336
2 336 337
2 337 338
2 338 339
2 339 340
2 340 341
2 341 342
2 342 343
2 343 344
2 344 345
2 345 346
2 346 347
2 347 348
2 348 349


POINT_DATA 350
SCALARS a FLOAT 1
LOOKUP_TABLE default
0.0005894628
0.0005894628
0.0005894628
0.0005894628
0.0005894628
0.0005894628
0.0005894628
0.0005894628
0.0005894628
0.0005894628
0.0005894628
0.0005894628
0.0005894628
0.0005894628
0.0005894628
0.0005894628
0.0005894628
0.0005894628
0.0005894628
0.0005894628
0.0005894628
0.0005894628
0.0005894628
0.0005894628
0.0005894628
0.0005894628
0.0005894628
0.0005894628
0.0005894628
0.0005894628
0.0005894628
0.0005894628
0.0005894628
0.0005894628
0.0005894628
0.0005894628
0.0005894628
0.0005894628
0.0005894628
0.0005894628
0.0005894628
0.0005894628
0.0005894628
0.0005894628
0.0005894628
0.0005894628
0.0005894628
0.0005894628
0.0005894628
0.0005894628
0.0005894628
0.0005894628
0.0005894628
0.0005894628
0.0005894628
0.0005894628
0.0005894628
0.0005894628
0.0005894628
0.0005894628
0.0005894628
0.0005894628
0.0005894628
0.0005894628
0.0005894628
0.0005894628
0.0005894628
0.0005894628
0.0005894628
0.0005894628
0.0005894628
0.0005894628
0.0005894628
0.0005894628
0.0005894628
0.0005894628
0.0005894628
0.0005894628
0.0005894628
0.0005894628
0.0005894628
0.0005894628
0.0005894628
0.0005894628
0.0005894628
0.0005894628
0.0005894628
0.0005894628
0.0005894628
0.0005894628
0.0005894628
0.0005894628
0.0005894628
0.0005894628
0.0005894628
0.0005894628
0.0005894628
0.0005894628
0.0005894628
0.0005894628
0.0005894628
0.0005894628
0.0005894628
0.0005894628
0.0005894628
0.0005894628
0.0005894628
0.0005894628
0.0005894628
0.0005894628
0.0005894628
0.0005894628
0.0005894628
0.0005894628
0.0005894628
0.0005894628
0.0005894628
0.0005894628
0.0005894628
0.0005894628
0.0005894628
0.0005894628
0.0005894628
0.0005894628
0.0005894628
0.0005894628
0.0005894628
0.0005894628
0.0005894628
0.0005894628
0.0005894628
0.0005894628
0.0005894628
0.0005894628
0.0005894628
0.0005894628
0.0005894628
0.0005894628
0.0005894628
0.0005894628
0.0005894628
0.0005894628
0.0005894628
0.0005894628
0.0005894628
0.0005894628
0.0005894628
0.0005894628
0.0005894628
0.0005894628
0.0005894628
0.0005894628
0.0005894628
0.0005894628
0.0005894628
0.0005894628
0.0005894628
0.0005894628
0.0005894628
0.0005894628
0.0005894628
0.0005894628
0.0005894628
0.0005894628
0.0005894628
0.0005894628
0.0005894628
0.0005894628
0.0005894628
0.0005894628
0.0005894628
0.0005894628
0.0005894628
0.0005894628
0.0005894628
0.0005894628
0.0005894628
0.0005894628
0.0005894628
0.0005894628
0.0005894628
0.0005894628
0.0005894628
0.0005894628
0.0005894628
0.0005894628
0.0005894628
0.0005894628
0.0005894628
0.0005894628
0.0005894628
0.0005894628
0.0005894628
0.0005894628
0.0005894628
0.0005894628
0.0005894628
0.0005894628
0.0005894628
0.0005894628
0.0005894628
0.0005894628
0.0005894628
0.0005894628
0.0005894628
0.0005894628
0.0005894628
0.0005894628
0.0005894628
0.0005894628
0.0005894628
0.0005894628
0.0005894628
0.0005894628
0.0005894628
0.0005894628
0.0005894628
0.0005894628
0.0005894628
0.0005894628
0.0005894628
0.0005894628
0.0005894628
0.0005894628
0.0005894628
0.0005894628
0.0005894628
0.0005894628
0.0005894628
0.0005894628
0.0005894628
0.0005894628
0.0005894628
0.0005894628
0.0005894628
0.0005894628
0.0005894628
0.0005894628
0.0005894628
0.0005894628
0.0005894628
0.0005894628
0.0005894628
0.0005894628
0.0005894628
0.0005894628
0.0005894628
0.0005894628
0.0005894628
0.0005894628
0.0005894628
0.0005894628
0.0005894628
0.0005894628
0.0005894628
0.0005894628
0.0005894628
0.0005894628
0.0005894628
0.0005894628
0.0005894628
0.0005894628
0.0005894628
0.0005894628
0.0005894628
0.0005894628
0.0005894628
0.0005894628
0.0005894628
0.0005894628
0.0005894628
0.0005894628
0.0005894628
0.0005894628
0.0005894628
0.0005894628
0.0005894628
0.0005894628
0.0005894628
0.0005894628
0.0005894628
0.0005894628
0.0005894628
0.0005894628
0.0005894628
0.0005894628
0.0005894628
0.0005894628
0.0005894628
0.0005894628
0.0005894628
0.0005894628
0.0005894628
0.0005894628
0.0005894628
0.0005894628
0.0005894628
0.0005894628
0.0005894628
0.0005894628
0.0005894628
0.0005894628
0.0005894628
0.0005894628
0.0005894628
0.0005894628
0.0005894628
0.0005894628
0.0005894628
0.0005894628
0.0005894628
0.0005894628
0.0005894628
0.0005894628
0.0005894628
0.0005894628
0.0005894628
0.0005894628
0.0005894628
0.0005894628
0.0005894628
0.0005894628
0.0005894628
0.0005894628
0.0005894628
0.0005894628
0.0005894628
0.0005894628
0.0005894628
0.0005894628
0.0005894628
0.0005894628
0.0005894628
0.0005894628
0.0005894628
0.0005894628
0.0005894628
0.0005894628
0.0005894628
0.0005894628
0.0005894628
0.0005894628
0.0005894628
0.0005894628
0.0005894628
0.0005894628
0.0005894628
0.0005894628
0.0005894628
0.0005894628


SCALARS b FLOAT 1
LOOKUP_TABLE default
0.04420971
0.04420971
0.04420971
0.04420971
0.04420971
0.04420971
0.04420971
0.04420971
0.04420971
0.04420971
0.04420971
0.04420971
0.04420971
0.04420971
0.04420971
0.04420971
0.04420971
0.04420971
0.04420971
0.04420971
0.04420971
0.04420971
0.04420971
0.04420971
0.04420971
0.04420971
0.04420971
0.04420971
0.04420971
0.04420971
0.04420971
0.04420971
0.04420971
0.04420971
0.04420971
0.04420971
0.04420971
0.04420971
0.04420971
0.04420971
0.04420971
0.04420971
0.04420971
0.04420971
0.04420971
0.04420971
0.04420971
0.04420971
0.04420971
0.04420971
0.04420971
0.04420971
0.04420971
0.04420971
0.04420971
0.04420971
0.04420971
0.04420971
0.04420971
0.04420971
0.04420971
0.04420971
0.04420971
0.04420971
0.04420971
0.04420971
0.04420971
0.04420971
0.04420971
0.04420971
0.04420971
0.04420971
0.04420971
0.04420971
0.04420971
0.04420971
0.04420971
0.04420971
0.04420971
0.04420971
0.04420971
0.04420971
0.04420971
0.04420971
0.04420971
0.04420971
0.04420971
0.04420971
0.04420971
0.04420971
0.04420971
0.04420971
0.04420971
0.04420971
0.04420971
0.04420971
0.04420971
0.04420971
0.04420971
0.04420971
0.04420971
0.04420971
0.04420971
0.04420971
0.04420971
0.04420971
0.04420971
0.04420971
0.04420971
0.04420971
0.04420971
0.04420971
0.04420971
0.04420971
0.04420971
0.04420971
0.04420971
0.04420971
0.04420971
0.04420971
0.04420971
0.04420971
0.04420971
0.04420971
0.04420971
0.04420971
0.04420971
0.04420971
0.04420971
0.04420971
0.04420971
0.04420971
0.04420971
0.04420971
0.04420971
0.04420971
0.04420971
0.04420971
0.04420971
0.04420971
0.04420971
0.04420971
0.04420971
0.04420971
0.04420971
0.04420971
0.04420971
0.04420971
0.04420971
0.04420971
0.04420971
0.04420971
0.04420971
0.04420971
0.04420971
0.04420971
0.04420971
0.04420971
0.04420971
0.04420971
0.04420971
0.04420971
0.04420971
0.04420971
0.04420971
0.04420971
0.04420971
0.04420971
0.04420971
0.04420971
0.04420971
0.04420971
0.04420971
0.04420971
0.04420971
0.04420971
0.04420971
0.04420971
0.04420971
0.04420971
0.04420971
0.04420971
0.04420971
0.04420971
0.04420971
0.04420971
0.04420971
0.04420971
0.04420971
0.04420971
0.04420971
0.04420971
0.04420971
0.04420971
0.04420971
0.04420971
0.04420971
0.04420971
0.04420971
0.04420971
0.04420971
0.04420971
0.04420971
0.04420971
0.04420971
0.04420971
0.04420971
0.04420971
0.04420971
0.04420971
0.04420971
0.04420971
0.04420971
0.04420971
0.04420971
0.04420971
0.04420971
0.04420971
0.04420971
0.04420971
0.04420971
0.04420971
0.04420971
0.04420971
0.04420971
0.04420971
0.04420971
0.04420971
0.04420971
0.04420971
0.04420971
0.04420971
0.04420971
0.04420971
0.04420971
0.04420971
0.04420971
0.04420971
0.04420971
0.04420971
0.04420971
0.04420971
0.04420971
0.04420971
0.04420971
0.04420971
0.04420971
0.04420971
0.04420971
0.04420971
0.04420971
0.04420971
0.04420971
0.04420971
0.04420971
0.04420971
0.04420971
0.04420971
0.04420971
0.04420971
0.04420971
0.04420971
0.04420971
0.04420971
0.04420971
0.04420971
0.04420971
0.04420971
0.04420971
0.04420971
0.04420971
0.04420971
0.04420971
0.04420971
0.04420971
0.04420971
0.04420971
0.04420971
0.04420971
0.04420971
0.04420971
0.04420971
0.04420971
0.04420971
0.04420971
0.04420971
0.04420971
0.04420971
0.04420971
0.04420971
0.04420971
0.04420971
0.04420971
0.04420971
0.04420971
0.04420971
0.04420971
0.04420971
0.04420971
0.04420971
0.04420971
0.04420971
0.04420971
0.04420971
0.04420971
0.04420971
0.04420971
0.04420971
0.04420971
0.04420971
0.04420971
0.04420971
0.04420971
0.04420971
0.04420971
0.04420971
0.04420971
0.04420971
0.04420971
0.04420971
0.04420971
0.04420971
0.04420971
0.04420971
0.04420971
0.04420971
0.04420971
0.04420971
0.04420971
0.04420971
0.04420971
0.04420971
0.04420971
0.04420971
0.04420971
0.04420971
0.04420971
0.04420971
0.04420971
0.04420971
0.04420971
0.04420971
0.04420971
0.04420971
0.04420971
0.04420971
0.04420971
0.04420971
0.04420971
0.04420971


VECTORS d1 FLOAT
0 0.9673209 0.2535554
-0.009390977 0.9681066 0.2503626
-0.01877537 0.9687938 0.247156
-0.02815227 0.9693826 0.2439359
-0.0375208 0.9698733 0.240703
-0.04688006 0.970266 0.2374576
-0.05622917 0.9705609 0.2342002
-0.06556726 0.9707583 0.2309313
-0.07489345 0.9708583 0.2276514
-0.0842069 0.9708612 0.2243609
-0.09350672 0.9707671 0.2210603
-0.1027921 0.9705765 0.2177501
-0.1120621 0.9702894 0.2144308
-0.121316 0.9699062 0.2111027
-0.1305529 0.9694271 0.2077665
-0.139772 0.9688525 0.2044226
-0.1489725 0.9681826 0.2010714
-0.1581535 0.9674176 0.1977134
-0.1673143 0.966558 0.194349
-0.176454 0.965604 0.1909788
-0.1855718 0.9645559 0.1876032
-0.194667 0.9634141 0.1842226
-0.2037388 0.9621789 0.1808376
-0.2127863 0.9608507 0.1774485
-0.2218089 0.9594297 0.1740559
-0.2308057 0.9579164 0.1706602
-0.239776 0.9563111 0.1672619
-0.2487191 0.9546142 0.1638613
-0.2576342 0.9528261 0.1604591
-0.2665205 0.9509471 0.1570555
-0.2753774 0.9489777 0.1536511
-0.2842041 0.9469182 0.1502464
-0.2929998 0.9447691 0.1468417
-0.301764 0.9425307 0.1434375
-0.3104958 0.9402036 0.1400343
-0.3191946 0.937788 0.1366325
-0.3278597 0.9352845 0.1332326
-0.3364903 0.9326935 0.1298349
-0.3450859 0.9300154 0.12644
-0.3536458 0.9272507 0.1230482
-0.3621692 0.9243998 0.11966
-0.3706555 0.9214632 0.1162759
-0.3791042 0.9184413 0.1128962
-0.3875144 0.9153347 0.1095214
-0.3958856 0.9121438 0.106152
-0.4042172 0.9088691 0.1027883
-0.4125086 0.905511 0.09943074
-0.420759 0.9020701 0.09607979
-0.4289679 0.8985469 0.09273585
-0.4371347 0.8949419 0.08939935
-0.4452589 0.8912555 0.08607069
-0.4533397 0.8874883 0.08275028
-0.4613766 0.8836408 0.07943855
-0.4693691 0.8797136 0.0761359
-0.4773166 0.875707 0.07284273
-0.4852184 0.8716218 0.06955945
-0.4930741 0.8674584 0.06628647
-0.5008831 0.8632173 0.06302418
-0.5086448 0.8588991 0.05977298
-0.5163587 0.8545044 0.05653327
-0.5240243 0.8500336 0.05330544
-0.531641 0.8454874 0.05008988
-0.5392083 0.8408662 0.04688699
-0.5467257 0.8361708 0.04369714
-0.5541927 0.8314015 0.04052072
-0.5616089 0.8265591 0.03735812
-0.5689736 0.821644 0.03420971
-0.5762864 0.8166568 0.03107586
-0.5835468 0.8115982 0.02795697
-0.5907543 0.8064686 0.02485338
-0.5979086 0.8012687 0.02176548
-0.605009 0.7959992 0.01869364
-0.6120552 0.7906604 0.01563821
-0.6190467 0.7852531 0.01259955
-0.625983 0.7797779 0.009578039
-0.6328637 0.7742353 0.006574016
-0.6396884 0.768626 0.003587841
-0.6464566 0.7629505 0.0006198646
-0.6531679 0.7572095 -0.002329564
-0.659822 0.7514036 -0.0052601
-0.6664183 0.7455333 -0.008171399
-0.6729565 0.7395994 -0.01106312
-0.6794361 0.7336023 -0.01393493
-0.6858569 0.7275428 -0.01678648
-0.6922183 0.7214215 -0.01961746
-0.69852 0.715239 -0.02242752
-0.7047617 0.7089958 -0.02521634
-0.7109429 0.7026927 -0.02798359
-0.7170633 0.6963303 -0.03072897
-0.7231226 0.6899092 -0.03345214
-0.7291203 0.68343 -0.03615279
-0.7350561 0.6768934 -0.03883061
-0.7409297 0.6703 -0.04148529
-0.7467408 0.6636505 -0.04411652
-0.7524889 0.6569455 -0.04672399
-0.7581738 0.6501856 -0.04930742
-0.7637951 0.6433715 -0.05186649
-0.7693526 0.6365038 -0.05440092
-0.7748459 0.6295832 -0.05691041
-0.7802747 0.6226104 -0.05939467
-0.7856387 0.6155859 -0.06185342
-0.7909376 0.6085105 -0.06428638
-0.7961711 0.6013848 -0.06669326
-0.8013389 0.5942094 -0.06907378
-0.8064407 0.5869851 -0.07142768
-0.8114763 0.5797124 -0.07375468
-0.8164453 0.5723921 -0.07605452
-0.8213476 0.5650248 -0.07832693
-0.8261828 0.5576111 -0.08057165
-0.8309507 0.5501518 -0.08278842
-0.835651 0.5426474 -0.08497699
-0.8402835 0.5350988 -0.08713711
-0.844848 0.5275064 -0.08926853
-0.8493441 0.5198711 -0.091371
-0.8537717 0.5121934 -0.09344429
-0.8581305 0.5044741 -0.09548815
-0.8624202 0.4967138 -0.09750235
-0.8666408 0.4889132 -0.09948666
-0.8707919 0.481073 -0.1014408
-0.8748733 0.4731939 -0.1033647
-0.8788849 0.4652764 -0.105258
-0.8828263 0.4573214 -0.1071205
-0.8866975 0.4493294 -0.108952
-0.8904982 0.4413013 -0.1107523
-0.8942283 0.4332375 -0.1125212
-0.8978875 0.4251389 -0.1142584
-0.9014756 0.4170062 -0.1159639
-0.9049925 0.4088399 -0.1176373
-0.908438 0.4006408 -0.1192786
-0.9118119 0.3924096 -0.1208874
-0.9151141 0.3841469 -0.1224637
-0.9183444 0.3758535 -0.1240072
-0.9215026 0.36753 -0.1255177
-0.9245886 0.3591772 -0.1269952
-0.9276022 0.3507956 -0.1284393
-0.9305433 0.3423861 -0.12985
-0.9334117 0.3339492 -0.1312271
-0.9362073 0.3254858 -0.1325704
-0.93893 0.3169964 -0.1338798
-0.9415796 0.3084818 -0.1351551
-0.944156 0.2999427 -0.1363962
-0.946659 0.2913797 -0.1376029
-0.9490886 0.2827936 -0.1387751
-0.9514447 0.274185 -0.1399127
-0.9537271 0.2655547 -0.1410154
-0.9559357 0.2569033 -0.1420833
-0.9580704 0.2482316 -0.1431162
-0.9601311 0.2395402 -0.1441138
-0.9621177 0.2308298 -0.1450763
-0.9640301 0.2221012 -0.1460033
-0.9658683 0.213355 -0.1468949
-0.9676321 0.204592 -0.1477508
-0.9693214 0.1958128 -0.1485711
-0.9709362 0.1870181 -0.1493556
-0.9724764 0.1782086 -0.1501042
-0.973942 0.1693851 -0.1508169
-0.9753328 0.1605482 -0.1514935
-0.9766487 0.1516987 -0.152134
-0.9778899 0.1428372 -0.1527383
-0.979056 0.1339644 -0.1533063
-0.9801472 0.1250811 -0.153838
-0.9811634 0.1161879 -0.1543333
-0.9821045 0.1072856 -0.1547921
-0.9829704 0.09837481 -0.1552144
-0.9837612 0.08945629 -0.1556002
-0.9844768 0.08053073 -0.1559494
-0.9851172 0.07159884 -0.1562619
-0.9856823 0.06266131 -0.1565377
-0.986172 0.05371885 -0.1567768
-0.9865865 0.04477216 -0.1569792
-0.9869257 0.03582196 -0.1571448
-0.9871895 0.02686893 -0.1572737
-0.9873779 0.0179138 -0.1573657
-0.987491 0.008957251 -0.1574209
-0.9875287 9.078161e-10 -0.1574393
-0.987491 -0.008957249 -0.1574209
-0.9873779 -0.01791379 -0.1573657
-0.9871895 -0.02686893 -0.1572737
-0.9869257 -0.03582196 -0.1571448
-0.9865865 -0.04477216 -0.1569792
-0.9861721 -0.05371885 -0.1567768
-0.9856823 -0.06266131 -0.1565377
-0.9851172 -0.07159884 -0.1562619
-0.9844768 -0.08053073 -0.1559494
-0.9837612 -0.08945629 -0.1556002
-0.9829704 -0.09837481 -0.1552144
-0.9821045 -0.1072856 -0.1547921
-0.9811634 -0.1161879 -0.1543333
-0.9801472 -0.1250811 -0.153838
-0.979056 -0.1339644 -0.1533063
-0.9778899 -0.1428372 -0.1527383
-0.9766487 -0.1516987 -0.152134
-0.9753328 -0.1605482 -0.1514935
-0.973942 -0.1693851 -0.1508169
-0.9724764 -0.1782086 -0.1501042
-0.9709362 -0.1870181 -0.1493556
-0.9693214 -0.1958128 -0.1485711
-0.9676321 -0.204592 -0.1477508
-0.9658683 -0.213355 -0.1468949
-0.9640301 -0.2221012 -0.1460033
-0.9621177 -0.2308298 -0.1450763
-0.9601311 -0.2395402 -0.1441138
-0.9580704 -0.2482316 -0.1431162
-0.9559357 -0.2569033 -0.1420833
-0.9537271 -0.2655547 -0.1410154
-0.9514447 -0.274185 -0.1399127
-0.9490886 -0.2827936 -0.1387751
-0.946659 -0.2913797 -0.1376029
-0.944156 -0.2999427 -0.1363962
-0.9415796 -0.3084818 -0.1351551
-0.93893 -0.3169964 -0.1338798
-0.9362073 -0.3254858 -0.1325704
-0.9334117 -0.3339492 -0.1312271
-0.9305433 -0.3423861 -0.12985
-0.9276022 -0.3507956 -0.1284393
-0.9245886 -0.3591772 -0.1269952
-0.9215026 -0.36753 -0.1255177
-0.9183444 -0.3758535 -0.1240072
-0.9151141 -0.3841469 -0.1224637
-0.9118119 -0.3924096 -0.1208874
-0.908438 -0.4006408 -0.1192786