# vtk DataFile Version 2.0
Written badly by Kevin Korner
ASCII
DATASET POLYDATA
POINTS 350 FLOAT
0 0 0
0.00286533 0 0
0.005727649 -0.0001043469 7.971055e-05
0.008580681 -0.0003122179 0.0002443561
0.01141779 -0.0006222052 0.0004990322
0.01423199 -0.001032279 0.0008486473
0.01701601 -0.001539758 0.001297862
0.01976233 -0.002141285 0.001851025
0.02246323 -0.002832808 0.002512111
0.02511086 -0.003609574 0.003284653
0.02769729 -0.004466132 0.004171683
0.03021459 -0.00539634 0.005175669
0.03265495 -0.006393392 0.006298462
0.03501069 -0.007449851 0.007541246
0.03727439 -0.008557694 0.008904495
0.03943898 -0.00970837 0.01038794
0.0414978 -0.01089287 0.01199055
0.04344468 -0.0121018 0.0137105
0.04527405 -0.01332546 0.01554521
0.04698097 -0.01455396 0.01749132
0.04856119 -0.0157773 0.01954472
0.05001124 -0.01698546 0.0217006
0.05132842 -0.01816852 0.02395349
0.05251086 -0.01931677 0.02629731
0.0535575 -0.02042077 0.02872545
0.05446813 -0.02147146 0.03123082
0.05524335 -0.02246025 0.03380598
0.05588456 -0.02337911 0.03644315
0.05639389 -0.02422057 0.03913436
0.05677423 -0.02497785 0.04187151
0.05702907 -0.02564484 0.04464645
0.05716254 -0.02621618 0.04745107
0.05717927 -0.02668722 0.05027736
0.05708437 -0.02705409 0.05311753
0.05688332 -0.02731363 0.05596399
0.05658192 -0.02746342 0.05880948
0.05618619 -0.02750175 0.06164709
0.05570236 -0.02742756 0.0644703
0.05513671 -0.02724042 0.067273
0.0544956 -0.02694052 0.07004954
0.05378536 -0.02652855 0.07279471
0.05301224 -0.02600571 0.07550377
0.0521824 -0.02537365 0.07817248
0.05130182 -0.02463439 0.08079701
0.0503763 -0.02379031 0.08337404
0.04941143 -0.02284406 0.08590065
0.04841253 -0.02179856 0.08837436
0.04738469 -0.0206569 0.09079309
0.04633272 -0.01942234 0.09315515
0.04526114 -0.01809826 0.0954592
0.04417419 -0.01668813 0.09770423
0.04307582 -0.01519544 0.09988955
0.04196971 -0.01362374 0.1020147
0.04085923 -0.01197656 0.1040796
0.03974751 -0.01025738 0.1060843
0.03863739 -0.008469678 0.108029
0.03753146 -0.006616838 0.1099142
0.03643207 -0.00470218 0.1117405
0.03534134 -0.002728933 0.1135088
0.03426116 -0.0007002317 0.1152198
0.03319321 0.001380895 0.1168747
0.032139 0.003511527 0.1184744
0.03109981 0.005688859 0.1200202
0.0300768 0.007910197 0.1215132
0.02907094 0.01017297 0.1229548
0.02808306 0.01247472 0.1243463
0.02711387 0.0148131 0.125689
0.02616394 0.0171859 0.1269842
0.02523373 0.01959099 0.1282333
0.02432359 0.02202637 0.1294378
0.02343381 0.02449016 0.1305989
0.02256455 0.02698054 0.131718
0.02171591 0.02949584 0.1327965
0.02088793 0.03203446 0.1338358
0.02008059 0.03459488 0.134837
0.01929379 0.03717571 0.1358016
0.0185274 0.0397756 0.1367307
0.01778124 0.0423933 0.1376257
0.01705511 0.04502764 0.1384877
0.01634874 0.04767753 0.139318
0.01566185 0.05034191 0.1401176
0.01499415 0.05301984 0.1408876
0.01434531 0.05571039 0.1416293
0.01371497 0.05841273 0.1423435
0.01310279 0.06112605 0.1430315
0.01250838 0.06384962 0.143694
0.01193137 0.06658274 0.1443321
0.01137136 0.06932477 0.1449468
0.01082796 0.07207509 0.1455389
0.01030076 0.07483314 0.1461092
0.009789372 0.07759841 0.1466587
0.00929338 0.08037038 0.1471881
0.008812385 0.08314861 0.1476982
0.008345985 0.08593267 0.1481897
0.007893783 0.08872215 0.1486634
0.007455384 0.09151669 0.14912
0.007030397 0.09431594 0.1495601
0.006618438 0.09711958 0.1499844
0.006219128 0.0999273 0.1503935
0.005832095 0.1027388 0.1507879
0.005456974 0.1055539 0.1511684
0.005093407 0.1083723 0.1515353
0.004741045 0.1111938 0.1518892
0.004399545 0.1140181 0.1522307
0.004068575 0.1168451 0.1525602
0.00374781 0.1196746 0.1528782
0.003436934 0.1225065 0.1531851
0.00313564 0.1253405 0.1534814
0.002843631 0.1281765 0.1537674
0.002560617 0.1310144 0.1540436
0.002286318 0.1338541 0.1543103
0.002020465 0.1366954 0.1545679
0.001762794 0.1395382 0.1548167
0.001513053 0.1423825 0.1550571
0.001270998 0.1452282 0.1552893
0.001036394 0.148075 0.1555137
0.0008090124 0.1509231 0.1557305
0.0005886357 0.1537722 0.15594
0.0003750532 0.1566224 0.1561425
0.0001680622 0.1594735 0.1563383
-3.253173e-05 0.1623256 0.1565274
-0.0002269159 0.1651784 0.1567103
-0.00041527 0.1680321 0.1568871
-0.0005977666 0.1708865 0.1570579
-0.0007745715 0.1737416 0.1572231
-0.0009458436 0.1765974 0.1573827
-0.001111735 0.1794537 0.157537
-0.001272393 0.1823106 0.1576861
-0.001427957 0.1851681 0.1578302
-0.001578561 0.1880261 0.1579694
-0.001724335 0.1908846 0.1581039
-0.0018654 0.1937435 0.1582338
-0.002001877 0.1966028 0.1583593
-0.002133877 0.1994625 0.1584805
-0.002261509 0.2023226 0.1585975
-0.002384876 0.205183 0.1587104
-0.002504078 0.2080438 0.1588193
-0.002619209 0.2109049 0.1589243
-0.002730359 0.2137663 0.1590256
-0.002837616 0.216628 0.1591232
-0.002941062 0.2194899 0.1592172
-0.003040776 0.222352 0.1593077
-0.003136834 0.2252144 0.1593948
-0.003229307 0.228077 0.1594785
-0.003318264 0.2309399 0.159559
-0.003403771 0.2338029 0.1596363
-0.00348589 0.2366661 0.1597104
-0.00356468 0.2395294 0.1597815
-0.003640198 0.242393 0.1598495
-0.003712498 0.2452566 0.1599146
-0.00378163 0.2481204 0.1599768
-0.003847643 0.2509844 0.1600361
-0.003910583 0.2538485 0.1600926
-0.003970493 0.2567127 0.1601464
-0.004027414 0.259577 0.1601975
-0.004081385 0.2624414 0.1602458
-0.004132443 0.2653059 0.1602916
-0.004180621 0.2681705 0.1603347
-0.004225952 0.2710352 0.1603752
-0.004268466 0.2739 0.1604133
-0.004308191 0.2767648 0.1604488
-0.004345153 0.2796297 0.1604818
-0.004379377 0.2824947 0.1605124
-0.004410884 0.2853597 0.1605405
-0.004439695 0.2882247 0.1605662
-0.004465828 0.2910899 0.1605895
-0.004489301 0.293955 0.1606105
-0.004510128 0.2968202 0.160629
-0.004528322 0.2996854 0.1606452
-0.004543897 0.3025507 0.1606591
-0.00455686 0.305416 0.1606707
-0.004567221 0.3082813 0.1606799
-0.004574986 0.3111466 0.1606868
-0.00458016 0.3140119 0.1606914
-0.004582746 0.3168772 0.1606937
-0.004582746 0.3197426 0.1606937
-0.00458016 0.3226079 0.1606914
-0.004574986 0.3254732 0.1606868
-0.004567221 0.3283385 0.1606799
-0.00455686 0.3312038 0.1606707
-0.004543897 0.3340691 0.1606591
-0.004528322 0.3369343 0.1606452
-0.004510128 0.3397996 0.160629
-0.0044893 0.3426648 0.1606105
-0.004465828 0.3455299 0.1605895
-0.004439694 0.348395 0.1605662
-0.004410884 0.3512601 0.1605405
-0.004379377 0.3541251 0.1605124
-0.004345153 0.3569901 0.1604818
-0.004308191 0.359855 0.1604488
-0.004268466 0.3627198 0.1604133
-0.004225952 0.3655846 0.1603752
-0.004180621 0.3684493 0.1603347
-0.004132443 0.3713139 0.1602916
-0.004081385 0.3741784 0.1602458
-0.004027414 0.3770428 0.1601974
-0.003970493 0.3799071 0.1601464
-0.003910583 0.3827713 0.1600926
-0.003847643 0.3856354 0.1600361
-0.00378163 0.3884993 0.1599768
-0.003712497 0.3913631 0.1599146
-0.003640198 0.3942268 0.1598495
-0.00356468 0.3970903 0.1597815
-0.003485889 0.3999537 0.1597104
-0.003403771 0.4028169 0.1596363
-0.003318264 0.4056799 0.159559
-0.003229306 0.4085427 0.1594785
-0.003136833 0.4114053 0.1593948
-0.003040776 0.4142677 0.1593077
-0.002941062 0.4171299 0.1592172
-0.002837616 0.4199918 0.1591232
-0.002730359 0.4228535 0.1590256
-0.002619208 0.4257149 0.1589243
-0.002504077 0.4285759 0.1588193
-0.002384876 0.4314367 0.1587104
-0.002261508 0.4342972 0.1585975
-0.002133877 0.4371573 0.1584805
-0.002001877 0.440017 0.1583593
-0.0018654 0.4428763 0.1582338
-0.001724334 0.4457352 0.1581039
-0.001578561 0.4485937 0.1579694
-0.001427956 0.4514516 0.1578302
-0.001272393 0.4543091 0.1576861
-0.001111735 0.4571661 0.157537
-0.0009458432 0.4600224 0.1573827
-0.0007745711 0.4628782 0.1572231
-0.0005977662 0.4657333 0.1570579
-0.0004152695 0.4685877 0.1568871
-0.0002269154 0.4714413 0.1567103
-3.253129e-05 0.4742942 0.1565274
0.0001680627 0.4771462 0.1563383
0.0003750536 0.4799974 0.1561425
0.0005886362 0.4828475 0.15594
0.0008090129 0.4856967 0.1557305
0.001036394 0.4885447 0.1555137
0.001270999 0.4913916 0.1552893
0.001513054 0.4942372 0.1550571
0.001762794 0.4970815 0.1548167
0.002020465 0.4999244 0.1545679
0.002286319 0.5027657 0.1543103
0.002560617 0.5056054 0.1540436
0.002843631 0.5084433 0.1537674
0.003135641 0.5112793 0.1534814
0.003436934 0.5141133 0.1531851
0.00374781 0.5169451 0.1528782
0.004068576 0.5197747 0.1525602
0.004399546 0.5226017 0.1522307
0.004741045 0.525426 0.1518892
0.005093408 0.5282475 0.1515353
0.005456975 0.5310659 0.1511684
0.005832096 0.5338809 0.1507879
0.006219128 0.5366925 0.1503935
0.006618438 0.5395002 0.1499844
0.007030397 0.5423038 0.1495601
0.007455384 0.5451031 0.14912
0.007893783 0.5478976 0.1486634
0.008345986 0.5506871 0.1481897
0.008812385 0.5534712 0.1476982
0.00929338 0.5562494 0.1471881
0.009789373 0.5590214 0.1466587
0.01030076 0.5617866 0.1461092
0.01082796 0.5645447 0.1455389
0.01137136 0.567295 0.1449468
0.01193137 0.570037 0.1443321
0.01250838 0.5727702 0.143694
0.01310279 0.5754937 0.1430315
0.01371498 0.578207 0.1423435
0.01434531 0.5809094 0.1416293
0.01499415 0.5835999 0.1408876
0.01566185 0.5862779 0.1401176
0.01634874 0.5889422 0.139318
0.01705511 0.5915921 0.1384877
0.01778124 0.5942265 0.1376257
0.0185274 0.5968442 0.1367307
0.01929379 0.5994441 0.1358016
0.02008059 0.6020249 0.134837
0.02088793 0.6045853 0.1338358
0.02171591 0.6071239 0.1327965
0.02256455 0.6096392 0.131718
0.02343381 0.6121296 0.1305989
0.02432359 0.6145934 0.1294378
0.02523373 0.6170288 0.1282333
0.02616394 0.6194339 0.1269842
0.02711387 0.6218067 0.125689
0.02808306 0.6241451 0.1243463
0.02907094 0.6264468 0.1229548
0.0300768 0.6287096 0.1215132
0.03109981 0.6309309 0.1200202
0.032139 0.6331082 0.1184744
0.03319321 0.6352389 0.1168747
0.03426116 0.63732 0.1152198
0.03534134 0.6393487 0.1135088
0.03643207 0.641322 0.1117405
0.03753146 0.6432366 0.1099142
0.03863739 0.6450895 0.108029
0.03974751 0.6468772 0.1060843
0.04085923 0.6485963 0.1040796
0.04196971 0.6502435 0.1020147
0.04307582 0.6518152 0.09988955
0.04417419 0.6533079 0.09770423
0.04526114 0.654718 0.0954592
0.04633272 0.6560421 0.09315515
0.04738469 0.6572767 0.09079309
0.04841253 0.6584183 0.08837436
0.04941143 0.6594638 0.08590065
0.0503763 0.6604101 0.08337404
0.05130182 0.6612542 0.08079701
0.0521824 0.6619934 0.07817248
0.05301224 0.6626255 0.07550377
0.05378536 0.6631483 0.07279471
0.0544956 0.6635603 0.07004954
0.05513671 0.6638602 0.067273
0.05570236 0.6640473 0.0644703
0.05618619 0.6641215 0.06164709
0.05658192 0.6640832 0.05880948
0.05688332 0.6639334 0.05596399
0.05708437 0.6636739 0.05311753
0.05717927 0.663307 0.05027736
0.05716254 0.662836 0.04745107
0.05702907 0.6622646 0.04464645
0.05677423 0.6615976 0.04187151
0.05639389 0.6608403 0.03913436
0.05588456 0.6599989 0.03644315
0.05524335 0.65908 0.03380598
0.05446813 0.6580912 0.03123082
0.0535575 0.6570405 0.02872545
0.05251086 0.6559365 0.02629731
0.05132842 0.6547883 0.02395349
0.05001124 0.6536052 0.0217006
0.04856119 0.6523971 0.01954472
0.04698097 0.6511737 0.01749132
0.04527405 0.6499452 0.01554521
0.04344468 0.6487216 0.0137105
0.0414978 0.6475126 0.01199055
0.03943898 0.6463281 0.01038794
0.03727439 0.6451775 0.008904495
0.03501069 0.6440696 0.007541246
0.03265495 0.6430132 0.006298462
0.03021459 0.6420161 0.005175669
0.02769729 0.6410859 0.004171683
0.02511086 0.6402293 0.003284653
0.02246323 0.6394526 0.002512111
0.01976233 0.6387611 0.001851025
0.01701601 0.6381595 0.001297862
0.01423199 0.6376521 0.0008486473
0.01141779 0.637242 0.0004990322
0.008580681 0.636932 0.0002443561
0.005727649 0.6367241 7.971055e-05
0.00286533 0.6366198 0
0 0.6366198 0

LINES 349 1047
2 0 1
2 1 2
2 2 3
2 3 4
2 4 5
2 5 6
2 6 7
2 7 8
2 8 9
2 9 10
2 10 11
2 11 12
2 12 13
2 13 14
2 14 15
2 15 16
2 16 17
2 17 18
2 18 19
2 19 20
2 20 21
2 21 22
2 22 23
2 23 24
2 24 25
2 25 26
2 26 27
2 27 28
2 28 29
2 29 30
2 30 31
2 31 32
2 32 33
2 33 34
2 34 35
2 35 36
2 36 37
2 37 38
2 38 39
2 39 40
2 40 41
2 41 42
2 42 43
2 43 44
2 44 45
2 45 46
2 46 47
2 47 48
2 48 49
2 49 50
2 50 51
2 51 52
2 52 53
2 53 54
2 54 55
2 55 56
2 56 57
2 57 58
2 58 59
2 59 60
2 60 61
2 61 62
2 62 63
2 63 64
2 64 65
2 65 66
2 66 67
2 67 68
2 68 69
2 69 70
2 70 71
2 71 72
2 72 73
2 73 74
2 74 75
2 75 76
2 76 77
2 77 78
2 78 79
2 79 80
2 80 81
2 81 82
2 82 83
2 83 84
2 84 85
2 85 86
2 86 87
2 87 88
2 88 89
2 89 90
2 90 91
2 91 92
2 92 93
2 93 94
2 94 95
2 95 96
2 96 97
2 97 98
2 98 99
2 99 100
2 100 101
2 101 102
2 102 103
2 103 104
2 104 105
2 105 106
2 106 107
2 107 108
2 108 109
2 109 110
2 110 111
2 111 112
2 112 113
2 113 114
2 114 115
2 115 116
2 116 117
2 117 118
2 118 119
2 119 120
2 120 121
2 121 122
2 122 123
2 123 124
2 124 125
2 125 126
2 126 127
2 127 128
2 128 129
2 129 130
2 130 131
2 131 132
2 132 133
2 133 134
2 134 135
2 135 136
2 136 137
2 137 138
2 138 139
2 139 140
2 140 141
2 141 142
2 142 143
2 143 144
2 144 145
2 145 146
2 146 147
2 147 148
2 148 149
2 149 150
2 150 151
2 151 152
2 152 153
2 153 154
2 154 155
2 155 156
2 156 157
2 157 158
2 158 159
2 159 160
2 160 161
2 161 162
2 162 163
2 163 164
2 164 165
2 165 166
2 166 167
2 167 168
2 168 169
2 169 170
2 170 171
2 171 172
2 172 173
2 173 174
2 174 175
2 175 176
2 176 177
2 177 178
2 178 179
2 179 180
2 180 181
2 181 182
2 182 183
2 183 184
2 184 185
2 185 186
2 186 187
2 187 188
2 188 189
2 189 190
2 190 191
2 191 192
2 192 193
2 193 194
2 194 195
2 195 196
2 196 197
2 197 198
2 198 199
2 199 200
2 200 201
2 201 202
2 202 203
2 203 204
2 204 205
2 205 206
2 206 207
2 207 208
2 208 209
2 209 210
2 210 211
2 211 212
2 212 213
2 213 214
2 214 215
2 215 216
2 216 217
2 217 218
2 218 219
2 219 220
2 220 221
2 221 222
2 222 223
2 223 224
2 224 225
2 225 226
2 226 227
2 227 228
2 228 229
2 229 230
2 230 231
2 231 232
2 232 233
2 233 234
2 234 235
2 235 236
2 236 237
2 237 238
2 238 239
2 239 240
2 240 241
2 241 242
2 242 243
2 243 244
2 244 245
2 245 246
2 246 247
2 247 248
2 248 249
2 249 250
2 250 251
2 251 252
2 252 253
2 253 254
2 254 255
2 255 256
2 256 257
2 257 258
2 258 259
2 259 260
2 260 261
2 261 262
2 262 263
2 263 264
2 264 265
2 265 266
2 266 267
2 267 268
2 268 269
2 269 270
2 270 271
2 271 272
2 272 273
2 273 274
2 274 275
2 275 276
2 276 277
2 277 278
2 278 279
2 279 280
2 280 281
2 281 282
2 282 283
2 283 284
2 284 285
2 285 286
2 286 287
2 287 288
2 288 289
2 289 290
2 290 291
2 291 292
2 292 293
2 293 294
2 294 295
2 295 296
2 296 297
2 297 298
2 298 299
2 299 300
2 300 301
2 301 302
2 302 303
2 303 304
2 304 305
2 305 306
2 306 307
2 307 308
2 308 309
2 309 310
2 310 311
2 311 312
2 312 313
2 313 314
2 314 315
2 315 316
2 316 317
2 317 318
2 318 319
2 319 320
2 320 321
2 321 322
2 322 323
2 323 324
2 324 325
2 325 326
2 326 327
2 327 328
2 328 329
2 329 330
2 330 331
2 331 332
2 332 333
2 333 334
2 334 335
2 335 336
2 336 337
2 337 338
2 338 339
2 339 340
2 340 341
2 341 342
2 342 343
2 343 344
2 344 345
2 345 346
2 346 347
2 347 348
2 348 349


POINT_DATA 350
SCALARS a FLOAT 1
LOOKUP_TABLE default
0.0005894628
0.0005894628
0.0005894628
0.0005894628
0.0005894628
0.0005894628
0.0005894628
0.0005894628
0.0005894628
0.0005894628
0.0005894628
0.0005894628
0.0005894628
0.0005894628
0.0005894628
0.0005894628
0.0005894628
0.0005894628
0.0005894628
0.0005894628
0.0005894628
0.0005894628
0.0005894628
0.0005894628
0.0005894628
0.0005894628
0.0005894628
0.0005894628
0.0005894628
0.0005894628
0.0005894628
0.0005894628
0.0005894628
0.0005894628
0.0005894628
0.0005894628
0.0005894628
0.0005894628
0.0005894628
0.0005894628
0.0005894628
0.0005894628
0.0005894628
0.0005894628
0.0005894628
0.0005894628
0.0005894628
0.0005894628
0.0005894628
0.0005894628
0.0005894628
0.0005894628
0.0005894628
0.0005894628
0.0005894628
0.0005894628
0.0005894628
0.0005894628
0.0005894628
0.0005894628
0.0005894628
0.0005894628
0.0005894628
0.0005894628
0.0005894628
0.0005894628
0.0005894628
0.0005894628
0.0005894628
0.0005894628
0.0005894628
0.0005894628
0.0005894628
0.0005894628
0.0005894628
0.0005894628
0.0005894628
0.0005894628
0.0005894628
0.0005894628
0.0005894628
0.0005894628
0.0005894628
0.0005894628
0.0005894628
0.0005894628
0.0005894628
0.0005894628
0.0005894628
0.0005894628
0.0005894628
0.0005894628
0.0005894628
0.0005894628
0.0005894628
0.0005894628
0.0005894628
0.0005894628
0.0005894628
0.0005894628
0.0005894628
0.0005894628
0.0005894628
0.0005894628
0.0005894628
0.0005894628
0.0005894628
0.0005894628
0.0005894628
0.0005894628
0.0005894628
0.0005894628
0.0005894628
0.0005894628
0.0005894628
0.0005894628
0.0005894628
0.0005894628
0.0005894628
0.0005894628
0.0005894628
0.0005894628
0.0005894628
0.0005894628
0.0005894628
0.0005894628
0.0005894628
0.0005894628
0.0005894628
0.0005894628
0.0005894628
0.0005894628
0.0005894628
0.0005894628
0.0005894628
0.0005894628
0.0005894628
0.0005894628
0.0005894628
0.0005894628
0.0005894628
0.0005894628
0.0005894628
0.0005894628
0.0005894628
0.0005894628
0.0005894628
0.0005894628
0.0005894628
0.0005894628
0.0005894628
0.0005894628
0.0005894628
0.0005894628
0.0005894628
0.0005894628
0.0005894628
0.0005894628
0.0005894628
0.0005894628
0.0005894628
0.0005894628
0.0005894628
0.0005894628
0.0005894628
0.0005894628
0.0005894628
0.0005894628
0.0005894628
0.0005894628
0.0005894628
0.0005894628
0.0005894628
0.0005894628
0.0005894628
0.0005894628
0.0005894628
0.0005894628
0.0005894628
0.0005894628
0.0005894628
0.0005894628
0.0005894628
0.0005894628
0.0005894628
0.0005894628
0.0005894628
0.0005894628
0.0005894628
0.0005894628
0.0005894628
0.0005894628
0.0005894628
0.0005894628
0.0005894628
0.0005894628
0.0005894628
0.0005894628
0.0005894628
0.0005894628
0.0005894628
0.0005894628
0.0005894628
0.0005894628
0.0005894628
0.0005894628
0.0005894628
0.0005894628
0.0005894628
0.0005894628
0.0005894628
0.0005894628
0.0005894628
0.0005894628
0.0005894628
0.0005894628
0.0005894628
0.0005894628
0.0005894628
0.0005894628
0.0005894628
0.0005894628
0.0005894628
0.0005894628
0.0005894628
0.0005894628
0.0005894628
0.0005894628
0.0005894628
0.0005894628
0.0005894628
0.0005894628
0.0005894628
0.0005894628
0.0005894628
0.0005894628
0.0005894628
0.0005894628
0.0005894628
0.0005894628
0.0005894628
0.0005894628
0.0005894628
0.0005894628
0.0005894628
0.0005894628
0.0005894628
0.0005894628
0.0005894628
0.0005894628
0.0005894628
0.0005894628
0.0005894628
0.0005894628
0.0005894628
0.0005894628
0.0005894628
0.0005894628
0.0005894628
0.0005894628
0.0005894628
0.0005894628
0.0005894628
0.0005894628
0.0005894628
0.0005894628
0.0005894628
0.0005894628
0.0005894628
0.0005894628
0.0005894628
0.0005894628
0.0005894628
0.0005894628
0.0005894628
0.0005894628
0.0005894628
0.0005894628
0.0005894628
0.0005894628
0.0005894628
0.0005894628
0.0005894628
0.0005894628
0.0005894628
0.0005894628
0.0005894628
0.0005894628
0.0005894628
0.0005894628
0.0005894628
0.0005894628
0.0005894628
0.0005894628
0.0005894628
0.0005894628
0.0005894628
0.0005894628
0.0005894628
0.0005894628
0.0005894628
0.0005894628
0.0005894628
0.0005894628
0.0005894628
0.0005894628
0.0005894628
0.0005894628
0.0005894628
0.0005894628
0.0005894628
0.0005894628
0.0005894628
0.0005894628
0.0005894628
0.0005894628
0.0005894628
0.0005894628
0.0005894628
0.0005894628
0.0005894628
0.0005894628
0.0005894628
0.0005894628
0.0005894628
0.0005894628
0.0005894628
0.0005894628
0.0005894628
0.0005894628
0.0005894628
0.0005894628
0.0005894628
0.0005894628
0.0005894628
0.0005894628
0.0005894628
0.0005894628
0.0005894628
0.0005894628
0.0005894628
0.0005894628
0.0005894628
0.0005894628
0.0005894628
0.0005894628
0.0005894628
0.0005894628
0.0005894628
0.0005894628


SCALARS b FLOAT 1
LOOKUP_TABLE default
0.04420971
0.04420971
0.04420971
0.04420971
0.04420971
0.04420971
0.04420971
0.04420971
0.04420971
0.04420971
0.04420971
0.04420971
0.04420971
0.04420971
0.04420971
0.04420971
0.04420971
0.04420971
0.04420971
0.04420971
0.04420971
0.04420971
0.04420971
0.04420971
0.04420971
0.04420971
0.04420971
0.04420971
0.04420971
0.04420971
0.04420971
0.04420971
0.04420971
0.04420971
0.04420971
0.04420971
0.04420971
0.04420971
0.04420971
0.04420971
0.04420971
0.04420971
0.04420971
0.04420971
0.04420971
0.04420971
0.04420971
0.04420971
0.04420971
0.04420971
0.04420971
0.04420971
0.04420971
0.04420971
0.04420971
0.04420971
0.04420971
0.04420971
0.04420971
0.04420971
0.04420971
0.04420971
0.04420971
0.04420971
0.04420971
0.04420971
0.04420971
0.04420971
0.04420971
0.04420971
0.04420971
0.04420971
0.04420971
0.04420971
0.04420971
0.04420971
0.04420971
0.04420971
0.04420971
0.04420971
0.04420971
0.04420971
0.04420971
0.04420971
0.04420971
0.04420971
0.04420971
0.04420971
0.04420971
0.04420971
0.04420971
0.04420971
0.04420971
0.04420971
0.04420971
0.04420971
0.04420971
0.04420971
0.04420971
0.04420971
0.04420971
0.04420971
0.04420971
0.04420971
0.04420971
0.04420971
0.04420971
0.04420971
0.04420971
0.04420971
0.04420971
0.04420971
0.04420971
0.04420971
0.04420971
0.04420971
0.04420971
0.04420971
0.04420971
0.04420971
0.04420971
0.04420971
0.04420971
0.04420971
0.04420971
0.04420971
0.04420971
0.04420971
0.04420971
0.04420971
0.04420971
0.04420971
0.04420971
0.04420971
0.04420971
0.04420971
0.04420971
0.04420971
0.04420971
0.04420971
0.04420971
0.04420971
0.04420971
0.04420971
0.04420971
0.04420971
0.04420971
0.04420971
0.04420971
0.04420971
0.04420971
0.04420971
0.04420971
0.04420971
0.04420971
0.04420971
0.04420971
0.04420971
0.04420971
0.04420971
0.04420971
0.04420971
0.04420971
0.04420971
0.04420971
0.04420971
0.04420971
0.04420971
0.04420971
0.04420971
0.04420971
0.04420971
0.04420971
0.04420971
0.04420971
0.04420971
0.04420971
0.04420971
0.04420971
0.04420971
0.04420971
0.04420971
0.04420971
0.04420971
0.04420971
0.04420971
0.04420971
0.04420971
0.04420971
0.04420971
0.04420971
0.04420971
0.04420971
0.04420971
0.04420971
0.04420971
0.04420971
0.04420971
0.04420971
0.04420971
0.04420971
0.04420971
0.04420971
0.04420971
0.04420971
0.04420971
0.04420971
0.04420971
0.04420971
0.04420971
0.04420971
0.04420971
0.04420971
0.04420971
0.04420971
0.04420971
0.04420971
0.04420971
0.04420971
0.04420971
0.04420971
0.04420971
0.04420971
0.04420971
0.04420971
0.04420971
0.04420971
0.04420971
0.04420971
0.04420971
0.04420971
0.04420971
0.04420971
0.04420971
0.04420971
0.04420971
0.04420971
0.04420971
0.04420971
0.04420971
0.04420971
0.04420971
0.04420971
0.04420971
0.04420971
0.04420971
0.04420971
0.04420971
0.04420971
0.04420971
0.04420971
0.04420971
0.04420971
0.04420971
0.04420971
0.04420971
0.04420971
0.04420971
0.04420971
0.04420971
0.04420971
0.04420971
0.04420971
0.04420971
0.04420971
0.04420971
0.04420971
0.04420971
0.04420971
0.04420971
0.04420971
0.04420971
0.04420971
0.04420971
0.04420971
0.04420971
0.04420971
0.04420971
0.04420971
0.04420971
0.04420971
0.04420971
0.04420971
0.04420971
0.04420971
0.04420971
0.04420971
0.04420971
0.04420971
0.04420971
0.04420971
0.04420971
0.04420971
0.04420971
0.04420971
0.04420971
0.04420971
0.04420971
0.04420971
0.04420971
0.04420971
0.04420971
0.04420971
0.04420971
0.04420971
0.04420971
0.04420971
0.04420971
0.04420971
0.04420971
0.04420971
0.04420971
0.04420971
0.04420971
0.04420971
0.04420971
0.04420971
0.04420971
0.04420971
0.04420971
0.04420971
0.04420971
0.04420971
0.04420971
0.04420971
0.04420971
0.04420971
0.04420971
0.04420971
0.04420971
0.04420971
0.04420971
0.04420971
0.04420971
0.04420971
0.04420971
0.04420971
0.04420971
0.04420971
0.04420971
0.04420971
0.04420971
0.04420971
0.04420971
0.04420971
0.04420971
0.04420971
0.04420971
0.04420971
0.04420971


VECTORS d1 FLOAT
0 -0.8049352 0.5933627
-0.04581998 -0.7832247 0.6200481
-0.09249085 -0.758519 0.6450537
-0.1398225 -0.7307653 0.6681555
-0.1876037 -0.6999334 0.6891285
-0.2356024 -0.6660195 0.7077496
-0.283568 -0.6290476 0.7238013
-0.3312324 -0.5890721 0.7370747
-0.378313 -0.5461794 0.7473736
-0.4245153 -0.500489 0.7545181
-0.4695366 -0.4521541 0.7583482
-0.5130699 -0.4013617 0.758728
-0.5548079 -0.3483317 0.7555483
-0.5944481 -0.2933154 0.7487306
-0.6316972 -0.2365932 0.7382292
-0.666276 -0.1784717 0.7240332
-0.6979244 -0.1192798 0.7061685
-0.7264055 -0.05936461 0.6846977
-0.7515102 0.0009137759 0.6597208
-0.7730609 0.06118732 0.6313739
-0.7909143 0.1210857 0.5998273
-0.804964 0.180242 0.5652838
-0.815142 0.2382981 0.5279749
-0.8214197 0.2949106 0.4881572
-0.8238073 0.3497552 0.4461085
-0.8223535 0.4025318 0.4021229
-0.8171436 0.4529678 0.3565059
-0.8082969 0.5008219 0.3095698
-0.7959639 0.5458864 0.2616286
-0.7803226 0.5879884 0.2129935
-0.7615751 0.6269911 0.1639682
-0.7399427 0.6627935 0.1148456
-0.7156623 0.6953302 0.0659036
-0.6889818 0.7245697 0.01740261
-0.6601559 0.7505124 -0.03041702
-0.6294426 0.7731889 -0.0773367
-0.5970988 0.7926566 -0.1231609
-0.5633776 0.8089971 -0.1677178
-0.5285253 0.8223133 -0.2108597
-0.4927786 0.8327257 -0.2524621
-0.4563627 0.8403697 -0.2924241
-0.4194898 0.8453922 -0.3306664
-0.3823575 0.8479491 -0.3671308
-0.3451483 0.8482021 -0.4017783
-0.3080288 0.8463166 -0.4345877
-0.2711498 0.8424591 -0.465554
-0.2346462 0.8367954 -0.4946864
-0.1986371 0.8294889 -0.5220071
-0.1632269 0.8206993 -0.5475488
-0.1285054 0.8105807 -0.5713539
-0.09454867 0.7992815 -0.5934725
-0.06142029 0.7869431 -0.613961
-0.02917183 0.7736995 -0.6328808
0.002155963 0.7596767 -0.6502974
0.0325323 0.7449929 -0.6662786
0.06193536 0.7297582 -0.6808942
0.09035134 0.7140745 -0.6942149
0.1177736 0.6980355 -0.7063114
0.1442019 0.6817276 -0.717254
0.1696413 0.6652293 -0.727112
0.1941019 0.6486119 -0.7359531
0.2175975 0.6319401 -0.7438434
0.2401458 0.6152718 -0.7508466
0.2617669 0.5986589 -0.7570241
0.2824836 0.5821477 -0.762435
0.3023204 0.5657789 -0.7671353
0.3213033 0.5495884 -0.7711788
0.3394594 0.5336076 -0.7746162
0.3568165 0.5178635 -0.7774956
0.373403 0.5023794 -0.7798623
0.3892474 0.4871751 -0.7817588
0.4043783 0.4722671 -0.7832254
0.4188243 0.4576689 -0.7842993
0.4326133 0.4433917 -0.7850156
0.4457731 0.4294441 -0.785407
0.4583309 0.4158325 -0.7855038
0.4703131 0.4025615 -0.7853342
0.4817456 0.3896342 -0.7849244
0.4926535 0.3770519 -0.7842986
0.503061 0.3648147 -0.7834793
0.5129917 0.3529216 -0.782487
0.522468 0.3413703 -0.7813408
0.5315119 0.3301578 -0.7800583
0.5401443 0.3192804 -0.7786553
0.5483852 0.3087336 -0.7771468
0.5562539 0.2985123 -0.7755462
0.5637689 0.288611 -0.7738658
0.5709478 0.2790236 -0.7721169
0.5778073 0.2697439 -0.7703096
0.5843637 0.2607652 -0.7684534
0.5906321 0.2520806 -0.7665566
0.5966272 0.2436832 -0.764627
0.6023629 0.2355658 -0.7626714
0.6078525 0.227721 -0.7606961
0.6131084 0.2201415 -0.7587067
0.6181426 0.2128199 -0.7567083
0.6229665 0.2057488 -0.7547053
0.6275909 0.1989207 -0.752702
0.6320259 0.1923283 -0.7507017
0.6362812 0.1859642 -0.7487079
0.6403661 0.1798211 -0.7467233
0.6442891 0.1738917 -0.7447504
0.6480585 0.168169 -0.7427916
0.6516821 0.1626458 -0.7408487
0.6551672 0.1573152 -0.7389235
0.6585206 0.1521704 -0.7370175
0.6617491 0.1472046 -0.7351319
0.6648586 0.1424113 -0.7332681
0.667855 0.137784 -0.7314269
0.6707438 0.1333163 -0.7296091
0.6735301 0.1290022 -0.7278157
0.6762187 0.1248356 -0.7260471
0.6788141 0.1208107 -0.7243039
0.6813206 0.1169217 -0.7225867
0.6837422 0.1131632 -0.7208957
0.6860827 0.1095297 -0.7192314
0.6883454 0.1060161 -0.717594
0.6905338 0.1026174 -0.7159838
0.6926508 0.09932871 -0.714401
0.6946993 0.09614533 -0.7128457
0.6966821 0.09306278 -0.7113181
0.6986016 0.09007669 -0.7098183
0.7004602 0.0871829 -0.7083464
0.7022601 0.08437737 -0.7069026
0.7040033 0.08165624 -0.7054868
0.7056918 0.07901581 -0.7040992
0.7073273 0.07645252 -0.7027397
0.7089116 0.07396294 -0.7014084
0.7104463 0.07154381 -0.7001054
0.7119327 0.06919199 -0.6988306
0.7133724 0.06690446 -0.6975842
0.7147665 0.06467835 -0.696366
0.7161163 0.06251089 -0.6951761
0.717423 0.06039944 -0.6940145
0.7186877 0.05834146 -0.6928812
0.7199112 0.05633451 -0.6917761
0.7210947 0.05437628 -0.6906994
0.7222389 0.05246452 -0.6896509
0.7233448 0.0505971 -0.6886307
0.724413 0.04877195 -0.6876388
0.7254444 0.04698711 -0.686675
0.7264397 0.04524069 -0.6857395
0.7273994 0.04353086 -0.6848322
0.7283243 0.04185588 -0.683953
0.7292149 0.04021407 -0.6831021
0.7300718 0.03860382 -0.6822792
0.7308954 0.03702356 -0.6814845
0.7316863 0.0354718 -0.6807179
0.732445 0.0339471 -0.6799794
0.7331718 0.03244807 -0.6792689
0.7338672 0.03097336 -0.6785865
0.7345315 0.02952167 -0.6779321
0.7351652 0.02809174 -0.6773057
0.7357685 0.02668237 -0.6767073
0.7363418 0.02529238 -0.6761369
0.7368854 0.02392063 -0.6755944
0.7373995 0.022566 -0.6750798
0.7378845 0.02122743 -0.6745932
0.7383405 0.01990387 -0.6741344
0.7387677 0.0185943 -0.6737036
0.7391665 0.01729773 -0.6733006
0.739537 0.01601318 -0.6729254
0.7398793 0.01473972 -0.6725781
0.7401937 0.0134764 -0.6722586
0.7404802 0.01222234 -0.671967
0.7407391 0.01097662 -0.6717032
0.7409704 0.009738383 -0.6714671
0.7411742 0.008506754 -0.6712589
0.7413507 0.007280884 -0.6710784
0.7414998 0.006059931 -0.6709257
0.7416218 0.004843062 -0.6708008
0.7417166 0.003629452 -0.6707036
0.7417843 0.002418281 -0.6706342
0.7418249 0.001208733 -0.6705926
0.7418384 -3.147184e-09 -0.6705787
0.7418249 -0.00120874 -0.6705926
0.7417843 -0.002418287 -0.6706342
0.7417166 -0.003629459 -0.6707036
0.7416218 -0.004843069 -0.6708008
0.7414998 -0.006059937 -0.6709257
0.7413507 -0.00728089 -0.6710784
0.7411742 -0.008506761 -0.6712589
0.7409704 -0.00973839 -0.6714671
0.7407391 -0.01097663 -0.6717032
0.7404802 -0.01222234 -0.671967
0.7401937 -0.01347641 -0.6722586
0.7398793 -0.01473972 -0.6725781
0.739537 -0.01601319 -0.6729254
0.7391665 -0.01729773 -0.6733006
0.7387677 -0.01859431 -0.6737035
0.7383405 -0.01990388 -0.6741344
0.7378845 -0.02122744 -0.6745932
0.7373995 -0.02256601 -0.6750798
0.7368854 -0.02392063 -0.6755944
0.7363418 -0.02529239 -0.6761369
0.7357685 -0.02668238 -0.6767073
0.7351652 -0.02809175 -0.6773057
0.7345315 -0.02952167 -0.6779321
0.7338672 -0.03097336 -0.6785865
0.7331718 -0.03244807 -0.6792689
0.732445 -0.03394711 -0.6799794
0.7316863 -0.03547181 -0.6807179
0.7308954 -0.03702356 -0.6814845
0.7300718 -0.03860382 -0.6822792
0.7292149 -0.04021408 -0.6831021
0.7283243 -0.04185589 -0.683953
0.7273994 -0.04353087 -0.6848322
0.7264397 -0.04524069 -0.6857395
0.7254444 -0.04698712 -0.686675
0.724413 -0.04877196 -0.6876388
0.7233448 -0.0505971 -0.6886307
0.7222389 -0.05246453 -0.6896509
0.7210947 -0.05437628 -0.6906994
0.7199112 -0.05633452 -0.6917761
0.7186877 -0.05834146 -0.6928812