# vtk DataFile Version 2.0
Written badly by Kevin Korner
ASCII
DATASET POLYDATA
POINTS 350 FLOAT
0 0 0
0.00286533 0 0
0.00572682 -0.0001312076 6.905411e-05
0.008576382 -0.0003943151 0.0002135651
0.01140533 -0.000789212 0.0004399205
0.01420441 -0.001314901 0.0007544143
0.01696387 -0.001969421 0.001163161
0.01967353 -0.002749773 0.001672002
0.02232284 -0.003651868 0.002286407
0.02490101 -0.004670476 0.003011374
0.02739713 -0.005799203 0.003851322
0.02980025 -0.007030481 0.004809993
0.03209961 -0.008355585 0.005890351
0.0342847 -0.009764672 0.007094497
0.03634548 -0.01124685 0.008423586
0.03827249 -0.01279024 0.009877767
0.04005706 -0.01438216 0.01145613
0.04169139 -0.01600917 0.01315669
0.04316875 -0.01765731 0.01497635
0.04448353 -0.01931221 0.01691097
0.0456314 -0.02095934 0.01895535
0.04660932 -0.02258414 0.02110333
0.04741565 -0.02417227 0.02334783
0.04805011 -0.02570976 0.025681
0.0485138 -0.02718321 0.02809431
0.04880915 -0.02857994 0.03057867
0.04893985 -0.02988818 0.03312456
0.0489108 -0.03109712 0.03572219
0.04872794 -0.0321971 0.03836165
0.04839818 -0.0331796 0.04103299
0.04792923 -0.03403734 0.0437264
0.04732949 -0.03476429 0.04643232
0.04660788 -0.03535566 0.0491415
0.04577371 -0.03580786 0.05184516
0.04483652 -0.0361185 0.05453501
0.04380599 -0.03628626 0.05720334
0.04269179 -0.03631089 0.05984305
0.04150345 -0.03619305 0.06244768
0.04025032 -0.03593428 0.06501143
0.03894145 -0.03553687 0.06752917
0.03758553 -0.03500375 0.06999643
0.03619081 -0.03433845 0.07240936
0.03476511 -0.03354493 0.07476474
0.03331574 -0.03262756 0.07705993
0.03184954 -0.03159097 0.07929283
0.03037278 -0.03044004 0.08146185
0.02889124 -0.02917979 0.08356588
0.02741019 -0.02781532 0.08560422
0.0259344 -0.02635176 0.08757656
0.02446812 -0.02479425 0.08948295
0.02301519 -0.02314784 0.09132372
0.02157897 -0.02141749 0.09309947
0.02016241 -0.01960807 0.09481104
0.0187681 -0.01772428 0.09645947
0.01739822 -0.01577067 0.09804596
0.01605466 -0.0137516 0.09957184
0.01473898 -0.01167126 0.1010386
0.01345246 -0.009533656 0.1024477
0.01219613 -0.007342584 0.1038008
0.01097078 -0.005101651 0.1050996
0.009776987 -0.00281427 0.1063457
0.00861516 -0.0004836623 0.107541
0.007485526 0.001887137 0.108687
0.006388165 0.004295275 0.1097855
0.005323027 0.006738077 0.1108383
0.004289948 0.009213033 0.111847
0.003288661 0.0117178 0.1128132
0.002318815 0.01425018 0.1137387
0.00137998 0.01680814 0.1146251
0.0004716662 0.01938977 0.1154738
-0.0004066738 0.02199329 0.1162863
-0.00125563 0.02461705 0.1170643
-0.002075831 0.02725953 0.1178091
-0.002867935 0.0299193 0.118522
-0.003632622 0.03259504 0.1192045
-0.004370592 0.03528553 0.1198578
-0.005082556 0.03798963 0.1204832
-0.005769234 0.04070629 0.1210818
-0.006431351 0.04343454 0.1216548
-0.007069632 0.04617349 0.1222033
-0.007684799 0.04892229 0.1227285
-0.008277572 0.05168019 0.1232312
-0.008848661 0.05444647 0.1237125
-0.00939877 0.05722048 0.1241733
-0.009928591 0.06000162 0.1246146
-0.0104388 0.06278931 0.1250371
-0.01093008 0.06558306 0.1254418
-0.01140306 0.06838239 0.1258293
-0.0118584 0.07118685 0.1262005
-0.01229671 0.07399604 0.1265561
-0.0127186 0.07680959 0.1268967
-0.01312466 0.07962717 0.1272231
-0.01351548 0.08244844 0.1275358
-0.01389159 0.08527313 0.1278354
-0.01425355 0.08810095 0.1281227
-0.01460188 0.09093168 0.1283979
-0.01493709 0.09376507 0.1286619
-0.01525966 0.09660092 0.1289149
-0.01557007 0.09943903 0.1291575
-0.01586879 0.1022792 0.1293901
-0.01615624 0.1051214 0.1296132
-0.01643285 0.1079653 0.1298272
-0.01669904 0.1108108 0.1300325
-0.0169552 0.1136579 0.1302294
-0.01720171 0.1165063 0.1304184
-0.01743894 0.119356 0.1305997
-0.01766723 0.122207 0.1307738
-0.01788693 0.125059 0.1309408
-0.01809836 0.127912 0.1311011
-0.01830183 0.1307659 0.131255
-0.01849765 0.1336207 0.1314027
-0.01868609 0.1364764 0.1315446
-0.01886744 0.1393327 0.1316808
-0.01904196 0.1421897 0.1318115
-0.01920991 0.1450474 0.1319371
-0.01937152 0.1479056 0.1320577
-0.01952704 0.1507643 0.1321735
-0.01967669 0.1536236 0.1322847
-0.01982068 0.1564833 0.1323916
-0.01995923 0.1593434 0.1324942
-0.02009252 0.162204 0.1325927
-0.02022075 0.1650649 0.1326873
-0.0203441 0.1679261 0.1327782
-0.02046275 0.1707876 0.1328655
-0.02057687 0.1736495 0.1329493
-0.02068661 0.1765116 0.1330297
-0.02079214 0.1793739 0.133107
-0.02089359 0.1822365 0.1331812
-0.02099112 0.1850993 0.1332524
-0.02108486 0.1879623 0.1333207
-0.02117494 0.1908254 0.1333863
-0.02126148 0.1936887 0.1334493
-0.02134462 0.1965522 0.1335097
-0.02142445 0.1994159 0.1335676
-0.0215011 0.2022796 0.1336232
-0.02157467 0.2051435 0.1336765
-0.02164527 0.2080075 0.1337275
-0.02171298 0.2108716 0.1337765
-0.02177791 0.2137358 0.1338233
-0.02184014 0.2166001 0.1338682
-0.02189977 0.2194645 0.1339112
-0.02195686 0.222329 0.1339523
-0.02201151 0.2251935 0.1339916
-0.02206378 0.2280581 0.1340291
-0.02211376 0.2309228 0.134065
-0.0221615 0.2337875 0.1340993
-0.02220707 0.2366523 0.134132
-0.02225054 0.2395171 0.1341631
-0.02229197 0.242382 0.1341928
-0.0223314 0.2452469 0.134221
-0.02236891 0.2481119 0.1342478
-0.02240453 0.2509769 0.1342733
-0.02243832 0.2538419 0.1342974
-0.02247033 0.256707 0.1343203
-0.02250059 0.2595721 0.1343419
-0.02252916 0.2624372 0.1343622
-0.02255606 0.2653023 0.1343814
-0.02258134 0.2681675 0.1343994
-0.02260503 0.2710327 0.1344163
-0.02262716 0.2738979 0.1344321
-0.02264776 0.2767631 0.1344467
-0.02266687 0.2796283 0.1344603
-0.0226845 0.2824936 0.1344729
-0.02270069 0.2853588 0.1344844
-0.02271545 0.2882241 0.1344949
-0.0227288 0.2910894 0.1345044
-0.02274077 0.2939547 0.1345129
-0.02275137 0.29682 0.1345204
-0.02276061 0.2996853 0.134527
-0.02276851 0.3025506 0.1345326
-0.02277507 0.3054159 0.1345372
-0.02278031 0.3082812 0.1345409
-0.02278424 0.3111466 0.1345437
-0.02278685 0.3140119 0.1345456
-0.02278816 0.3168772 0.1345465
-0.02278816 0.3197426 0.1345465
-0.02278685 0.3226079 0.1345456
-0.02278424 0.3254732 0.1345437
-0.02278031 0.3283385 0.1345409
-0.02277507 0.3312039 0.1345372
-0.02276851 0.3340692 0.1345326
-0.02276061 0.3369345 0.134527
-0.02275137 0.3397998 0.1345204
-0.02274077 0.3426651 0.1345129
-0.0227288 0.3455304 0.1345044
-0.02271545 0.3483957 0.1344949
-0.02270069 0.3512609 0.1344844
-0.0226845 0.3541262 0.1344729
-0.02266687 0.3569914 0.1344603
-0.02264776 0.3598567 0.1344467
-0.02262716 0.3627219 0.1344321
-0.02260503 0.3655871 0.1344163
-0.02258134 0.3684523 0.1343994
-0.02255606 0.3713174 0.1343814
-0.02252916 0.3741826 0.1343622
-0.02250059 0.3770477 0.1343419
-0.02247033 0.3799128 0.1343203
-0.02243832 0.3827778 0.1342974
-0.02240453 0.3856429 0.1342733
-0.02236891 0.3885079 0.1342478
-0.0223314 0.3913728 0.134221
-0.02229197 0.3942377 0.1341928
-0.02225054 0.3971026 0.1341631
-0.02220707 0.3999675 0.134132
-0.0221615 0.4028322 0.1340993
-0.02211376 0.405697 0.134065
-0.02206378 0.4085616 0.1340291
-0.02201151 0.4114262 0.1339916
-0.02195686 0.4142908 0.1339523
-0.02189977 0.4171552 0.1339112
-0.02184014 0.4200196 0.1338682
-0.02177791 0.4228839 0.1338233
-0.02171298 0.4257481 0.1337765
-0.02164527 0.4286123 0.1337275
-0.02157467 0.4314763 0.1336765
-0.0215011 0.4343401 0.1336232
-0.02142445 0.4372039 0.1335676
-0.02134462 0.4400675 0.1335097
-0.02126148 0.442931 0.1334493
-0.02117494 0.4457944 0.1333863
-0.02108486 0.4486575 0.1333207
-0.02099112 0.4515205 0.1332524
-0.02089359 0.4543833 0.1331812
-0.02079214 0.4572459 0.133107
-0.02068661 0.4601082 0.1330297
-0.02057687 0.4629703 0.1329493
-0.02046275 0.4658321 0.1328655
-0.0203441 0.4686937 0.1327782
-0.02022075 0.4715549 0.1326873
-0.02009252 0.4744158 0.1325927
-0.01995922 0.4772763 0.1324942
-0.01982068 0.4801365 0.1323916
-0.01967669 0.4829962 0.1322847
-0.01952704 0.4858554 0.1321735
-0.01937152 0.4887142 0.1320577
-0.01920991 0.4915724 0.1319371
-0.01904196 0.4944301 0.1318115
-0.01886744 0.4972871 0.1316808
-0.01868609 0.5001434 0.1315446
-0.01849765 0.502999 0.1314027
-0.01830183 0.5058538 0.131255
-0.01809836 0.5087078 0.1311011
-0.01788693 0.5115608 0.1309408
-0.01766723 0.5144128 0.1307738
-0.01743894 0.5172637 0.1305997
-0.01720171 0.5201135 0.1304184
-0.0169552 0.5229619 0.1302294
-0.01669904 0.525809 0.1300325
-0.01643285 0.5286545 0.1298272
-0.01615623 0.5314984 0.1296132
-0.01586878 0.5343405 0.1293901
-0.01557007 0.5371807 0.1291575
-0.01525966 0.5400189 0.1289149
-0.01493709 0.5428547 0.1286619
-0.01460188 0.5456881 0.1283979
-0.01425355 0.5485188 0.1281227
-0.01389159 0.5513466 0.1278354
-0.01351548 0.5541713 0.1275358
-0.01312466 0.5569926 0.127223
-0.0127186 0.5598102 0.1268967
-0.01229671 0.5626237 0.1265561
-0.0118584 0.5654329 0.1262005
-0.01140306 0.5682374 0.1258293
-0.01093008 0.5710367 0.1254418
-0.0104388 0.5738305 0.1250371
-0.00992859 0.5766182 0.1246146
-0.00939877 0.5793993 0.1241733
-0.008848661 0.5821733 0.1237125
-0.008277571 0.5849396 0.1232312
-0.007684799 0.5876975 0.1227285
-0.007069631 0.5904463 0.1222033
-0.006431351 0.5931852 0.1216548
-0.005769234 0.5959135 0.1210818
-0.005082556 0.5986301 0.1204832
-0.004370592 0.6013342 0.1198578
-0.003632622 0.6040247 0.1192045
-0.002867935 0.6067005 0.118522
-0.002075831 0.6093602 0.1178091
-0.00125563 0.6120027 0.1170643
-0.0004066735 0.6146265 0.1162863
0.0004716665 0.61723 0.1154738
0.001379981 0.6198116 0.1146251
0.002318815 0.6223696 0.1137387
0.003288662 0.624902 0.1128132
0.004289948 0.6274067 0.111847
0.005323027 0.6298817 0.1108383
0.006388165 0.6323245 0.1097855
0.007485526 0.6347326 0.108687
0.00861516 0.6371034 0.107541
0.009776987 0.639434 0.1063457
0.01097078 0.6417214 0.1050996
0.01219613 0.6439624 0.1038008
0.01345246 0.6461534 0.1024477
0.01473898 0.648291 0.1010386
0.01605466 0.6503714 0.09957184
0.01739822 0.6523904 0.09804596
0.0187681 0.6543441 0.09645947
0.02016241 0.6562278 0.09481104
0.02157897 0.6580373 0.09309947
0.02301519 0.6597676 0.09132372
0.02446812 0.661414 0.08948295
0.0259344 0.6629715 0.08757656
0.02741019 0.6644351 0.08560422
0.02889124 0.6657996 0.08356588
0.03037278 0.6670598 0.08146185
0.03184954 0.6682107 0.07929283
0.03331574 0.6692473 0.07705993
0.03476511 0.6701647 0.07476474
0.03619081 0.6709582 0.07240936
0.03758553 0.6716235 0.06999643
0.03894145 0.6721566 0.06752917
0.04025032 0.6725541 0.06501143
0.04150345 0.6728128 0.06244768
0.04269179 0.6729307 0.05984305
0.04380599 0.672906 0.05720334
0.04483652 0.6727383 0.05453501
0.04577371 0.6724276 0.05184516
0.04660788 0.6719754 0.0491415
0.04732949 0.6713841 0.04643232
0.04792923 0.6706571 0.0437264
0.04839818 0.6697994 0.04103299
0.04872794 0.6688169 0.03836165
0.0489108 0.6677169 0.03572219
0.04893985 0.6665079 0.03312456
0.04880915 0.6651997 0.03057867
0.0485138 0.663803 0.02809431
0.04805011 0.6623295 0.025681
0.04741565 0.660792 0.02334783
0.04660932 0.6592039 0.02110333
0.0456314 0.6575791 0.01895535
0.04448353 0.655932 0.01691097
0.04316875 0.6542771 0.01497635
0.04169139 0.6526289 0.01315669
0.04005706 0.6510019 0.01145613
0.03827249 0.64941 0.009877767
0.03634548 0.6478666 0.008423586
0.0342847 0.6463844 0.007094497
0.03209961 0.6449754 0.005890351
0.02980025 0.6436503 0.004809993
0.02739713 0.642419 0.003851322
0.02490101 0.6412902 0.003011374
0.02232284 0.6402716 0.002286407
0.01967353 0.6393695 0.001672002
0.01696387 0.6385892 0.001163161
0.01420441 0.6379347 0.0007544143
0.01140533 0.637409 0.0004399205
0.008576382 0.6370141 0.0002135651
0.00572682 0.636751 6.905411e-05
0.00286533 0.6366198 0
0 0.6366198 0

LINES 349 1047
2 0 1
2 1 2
2 2 3
2 3 4
2 4 5
2 5 6
2 6 7
2 7 8
2 8 9
2 9 10
2 10 11
2 11 12
2 12 13
2 13 14
2 14 15
2 15 16
2 16 17
2 17 18
2 18 19
2 19 20
2 20 21
2 21 22
2 22 23
2 23 24
2 24 25
2 25 26
2 26 27
2 27 28
2 28 29
2 29 30
2 30 31
2 31 32
2 32 33
2 33 34
2 34 35
2 35 36
2 36 37
2 37 38
2 38 39
2 39 40
2 40 41
2 41 42
2 42 43
2 43 44
2 44 45
2 45 46
2 46 47
2 47 48
2 48 49
2 49 50
2 50 51
2 51 52
2 52 53
2 53 54
2 54 55
2 55 56
2 56 57
2 57 58
2 58 59
2 59 60
2 60 61
2 61 62
2 62 63
2 63 64
2 64 65
2 65 66
2 66 67
2 67 68
2 68 69
2 69 70
2 70 71
2 71 72
2 72 73
2 73 74
2 74 75
2 75 76
2 76 77
2 77 78
2 78 79
2 79 80
2 80 81
2 81 82
2 82 83
2 83 84
2 84 85
2 85 86
2 86 87
2 87 88
2 88 89
2 89 90
2 90 91
2 91 92
2 92 93
2 93 94
2 94 95
2 95 96
2 96 97
2 97 98
2 98 99
2 99 100
2 100 101
2 101 102
2 102 103
2 103 104
2 104 105
2 105 106
2 106 107
2 107 108
2 108 109
2 109 110
2 110 111
2 111 112
2 112 113
2 113 114
2 114 115
2 115 116
2 116 117
2 117 118
2 118 119
2 119 120
2 120 121
2 121 122
2 122 123
2 123 124
2 124 125
2 125 126
2 126 127
2 127 128
2 128 129
2 129 130
2 130 131
2 131 132
2 132 133
2 133 134
2 134 135
2 135 136
2 136 137
2 137 138
2 138 139
2 139 140
2 140 141
2 141 142
2 142 143
2 143 144
2 144 145
2 145 146
2 146 147
2 147 148
2 148 149
2 149 150
2 150 151
2 151 152
2 152 153
2 153 154
2 154 155
2 155 156
2 156 157
2 157 158
2 158 159
2 159 160
2 160 161
2 161 162
2 162 163
2 163 164
2 164 165
2 165 166
2 166 167
2 167 168
2 168 169
2 169 170
2 170 171
2 171 172
2 172 173
2 173 174
2 174 175
2 175 176
2 176 177
2 177 178
2 178 179
2 179 180
2 180 181
2 181 182
2 182 183
2 183 184
2 184 185
2 185 186
2 186 187
2 187 188
2 188 189
2 189 190
2 190 191
2 191 192
2 192 193
2 193 194
2 194 195
2 195 196
2 196 197
2 197 198
2 198 199
2 199 200
2 200 201
2 201 202
2 202 203
2 203 204
2 204 205
2 205 206
2 206 207
2 207 208
2 208 209
2 209 210
2 210 211
2 211 212
2 212 213
2 213 214
2 214 215
2 215 216
2 216 217
2 217 218
2 218 219
2 219 220
2 220 221
2 221 222
2 222 223
2 223 224
2 224 225
2 225 226
2 226 227
2 227 228
2 228 229
2 229 230
2 230 231
2 231 232
2 232 233
2 233 234
2 234 235
2 235 236
2 236 237
2 237 238
2 238 239
2 239 240
2 240 241
2 241 242
2 242 243
2 243 244
2 244 245
2 245 246
2 246 247
2 247 248
2 248 249
2 249 250
2 250 251
2 251 252
2 252 253
2 253 254
2 254 255
2 255 256
2 256 257
2 257 258
2 258 259
2 259 260
2 260 261
2 261 262
2 262 263
2 263 264
2 264 265
2 265 266
2 266 267
2 267 268
2 268 269
2 269 270
2 270 271
2 271 272
2 272 273
2 273 274
2 274 275
2 275 276
2 276 277
2 277 278
2 278 279
2 279 280
2 280 281
2 281 282
2 282 283
2 283 284
2 284 285
2 285 286
2 286 287
2 287 288
2 288 289
2 289 290
2 290 291
2 291 292
2 292 293
2 293 294
2 294 295
2 295 296
2 296 297
2 297 298
2 298 299
2 299 300
2 300 301
2 301 302
2 302 303
2 303 304
2 304 305
2 305 306
2 306 307
2 307 308
2 308 309
2 309 310
2 310 311
2 311 312
2 312 313
2 313 314
2 314 315
2 315 316
2 316 317
2 317 318
2 318 319
2 319 320
2 320 321
2 321 322
2 322 323
2 323 324
2 324 325
2 325 326
2 326 327
2 327 328
2 328 329
2 329 330
2 330 331
2 331 332
2 332 333
2 333 334
2 334 335
2 335 336
2 336 337
2 337 338
2 338 339
2 339 340
2 340 341
2 341 342
2 342 343
2 343 344
2 344 345
2 345 346
2 346 347
2 347 348
2 348 349


POINT_DATA 350
SCALARS a FLOAT 1
LOOKUP_TABLE default
0.0005894628
0.0005894628
0.0005894628
0.0005894628
0.0005894628
0.0005894628
0.0005894628
0.0005894628
0.0005894628
0.0005894628
0.0005894628
0.0005894628
0.0005894628
0.0005894628
0.0005894628
0.0005894628
0.0005894628
0.0005894628
0.0005894628
0.0005894628
0.0005894628
0.0005894628
0.0005894628
0.0005894628
0.0005894628
0.0005894628
0.0005894628
0.0005894628
0.0005894628
0.0005894628
0.0005894628
0.0005894628
0.0005894628
0.0005894628
0.0005894628
0.0005894628
0.0005894628
0.0005894628
0.0005894628
0.0005894628
0.0005894628
0.0005894628
0.0005894628
0.0005894628
0.0005894628
0.0005894628
0.0005894628
0.0005894628
0.0005894628
0.0005894628
0.0005894628
0.0005894628
0.0005894628
0.0005894628
0.0005894628
0.0005894628
0.0005894628
0.0005894628
0.0005894628
0.0005894628
0.0005894628
0.0005894628
0.0005894628
0.0005894628
0.0005894628
0.0005894628
0.0005894628
0.0005894628
0.0005894628
0.0005894628
0.0005894628
0.0005894628
0.0005894628
0.0005894628
0.0005894628
0.0005894628
0.0005894628
0.0005894628
0.0005894628
0.0005894628
0.0005894628
0.0005894628
0.0005894628
0.0005894628
0.0005894628
0.0005894628
0.0005894628
0.0005894628
0.0005894628
0.0005894628
0.0005894628
0.0005894628
0.0005894628
0.0005894628
0.0005894628
0.0005894628
0.0005894628
0.0005894628
0.0005894628
0.0005894628
0.0005894628
0.0005894628
0.0005894628
0.0005894628
0.0005894628
0.0005894628
0.0005894628
0.0005894628
0.0005894628
0.0005894628
0.0005894628
0.0005894628
0.0005894628
0.0005894628
0.0005894628
0.0005894628
0.0005894628
0.0005894628
0.0005894628
0.0005894628
0.0005894628
0.0005894628
0.0005894628
0.0005894628
0.0005894628
0.0005894628
0.0005894628
0.0005894628
0.0005894628
0.0005894628
0.0005894628
0.0005894628
0.0005894628
0.0005894628
0.0005894628
0.0005894628
0.0005894628
0.0005894628
0.0005894628
0.0005894628
0.0005894628
0.0005894628
0.0005894628
0.0005894628
0.0005894628
0.0005894628
0.0005894628
0.0005894628
0.0005894628
0.0005894628
0.0005894628
0.0005894628
0.0005894628
0.0005894628
0.0005894628
0.0005894628
0.0005894628
0.0005894628
0.0005894628
0.0005894628
0.0005894628
0.0005894628
0.0005894628
0.0005894628
0.0005894628
0.0005894628
0.0005894628
0.0005894628
0.0005894628
0.0005894628
0.0005894628
0.0005894628
0.0005894628
0.0005894628
0.0005894628
0.0005894628
0.0005894628
0.0005894628
0.0005894628
0.0005894628
0.0005894628
0.0005894628
0.0005894628
0.0005894628
0.0005894628
0.0005894628
0.0005894628
0.0005894628
0.0005894628
0.0005894628
0.0005894628
0.0005894628
0.0005894628
0.0005894628
0.0005894628
0.0005894628
0.0005894628
0.0005894628
0.0005894628
0.0005894628
0.0005894628
0.0005894628
0.0005894628
0.0005894628
0.0005894628
0.0005894628
0.0005894628
0.0005894628
0.0005894628
0.0005894628
0.0005894628
0.0005894628
0.0005894628
0.0005894628
0.0005894628
0.0005894628
0.0005894628
0.0005894628
0.0005894628
0.0005894628
0.0005894628
0.0005894628
0.0005894628
0.0005894628
0.0005894628
0.0005894628
0.0005894628
0.0005894628
0.0005894628
0.0005894628
0.0005894628
0.0005894628
0.0005894628
0.0005894628
0.0005894628
0.0005894628
0.0005894628
0.0005894628
0.0005894628
0.0005894628
0.0005894628
0.0005894628
0.0005894628
0.0005894628
0.0005894628
0.0005894628
0.0005894628
0.0005894628
0.0005894628
0.0005894628
0.0005894628
0.0005894628
0.0005894628
0.0005894628
0.0005894628
0.0005894628
0.0005894628
0.0005894628
0.0005894628
0.0005894628
0.0005894628
0.0005894628
0.0005894628
0.0005894628
0.0005894628
0.0005894628
0.0005894628
0.0005894628
0.0005894628
0.0005894628
0.0005894628
0.0005894628
0.0005894628
0.0005894628
0.0005894628
0.0005894628
0.0005894628
0.0005894628
0.0005894628
0.0005894628
0.0005894628
0.0005894628
0.0005894628
0.0005894628
0.0005894628
0.0005894628
0.0005894628
0.0005894628
0.0005894628
0.0005894628
0.0005894628
0.0005894628
0.0005894628
0.0005894628
0.0005894628
0.0005894628
0.0005894628
0.0005894628
0.0005894628
0.0005894628
0.0005894628
0.0005894628
0.0005894628
0.0005894628
0.0005894628
0.0005894628
0.0005894628
0.0005894628
0.0005894628
0.0005894628
0.0005894628
0.0005894628
0.0005894628
0.0005894628
0.0005894628
0.0005894628
0.0005894628
0.0005894628
0.0005894628
0.0005894628
0.0005894628
0.0005894628
0.0005894628
0.0005894628
0.0005894628
0.0005894628
0.0005894628
0.0005894628
0.0005894628
0.0005894628
0.0005894628
0.0005894628
0.0005894628
0.0005894628
0.0005894628
0.0005894628
0.0005894628
0.0005894628
0.0005894628
0.0005894628
0.0005894628
0.0005894628
0.0005894628
0.0005894628
0.0005894628
0.0005894628
0.0005894628
0.0005894628
0.0005894628
0.0005894628


SCALARS b FLOAT 1
LOOKUP_TABLE default
0.04420971
0.04420971
0.04420971
0.04420971
0.04420971
0.04420971
0.04420971
0.04420971
0.04420971
0.04420971
0.04420971
0.04420971
0.04420971
0.04420971
0.04420971
0.04420971
0.04420971
0.04420971
0.04420971
0.04420971
0.04420971
0.04420971
0.04420971
0.04420971
0.04420971
0.04420971
0.04420971
0.04420971
0.04420971
0.04420971
0.04420971
0.04420971
0.04420971
0.04420971
0.04420971
0.04420971
0.04420971
0.04420971
0.04420971
0.04420971
0.04420971
0.04420971
0.04420971
0.04420971
0.04420971
0.04420971
0.04420971
0.04420971
0.04420971
0.04420971
0.04420971
0.04420971
0.04420971
0.04420971
0.04420971
0.04420971
0.04420971
0.04420971
0.04420971
0.04420971
0.04420971
0.04420971
0.04420971
0.04420971
0.04420971
0.04420971
0.04420971
0.04420971
0.04420971
0.04420971
0.04420971
0.04420971
0.04420971
0.04420971
0.04420971
0.04420971
0.04420971
0.04420971
0.04420971
0.04420971
0.04420971
0.04420971
0.04420971
0.04420971
0.04420971
0.04420971
0.04420971
0.04420971
0.04420971
0.04420971
0.04420971
0.04420971
0.04420971
0.04420971
0.04420971
0.04420971
0.04420971
0.04420971
0.04420971
0.04420971
0.04420971
0.04420971
0.04420971
0.04420971
0.04420971
0.04420971
0.04420971
0.04420971
0.04420971
0.04420971
0.04420971
0.04420971
0.04420971
0.04420971
0.04420971
0.04420971
0.04420971
0.04420971
0.04420971
0.04420971
0.04420971
0.04420971
0.04420971
0.04420971
0.04420971
0.04420971
0.04420971
0.04420971
0.04420971
0.04420971
0.04420971
0.04420971
0.04420971
0.04420971
0.04420971
0.04420971
0.04420971
0.04420971
0.04420971
0.04420971
0.04420971
0.04420971
0.04420971
0.04420971
0.04420971
0.04420971
0.04420971
0.04420971
0.04420971
0.04420971
0.04420971
0.04420971
0.04420971
0.04420971
0.04420971
0.04420971
0.04420971
0.04420971
0.04420971
0.04420971
0.04420971
0.04420971
0.04420971
0.04420971
0.04420971
0.04420971
0.04420971
0.04420971
0.04420971
0.04420971
0.04420971
0.04420971
0.04420971
0.04420971
0.04420971
0.04420971
0.04420971
0.04420971
0.04420971
0.04420971
0.04420971
0.04420971
0.04420971
0.04420971
0.04420971
0.04420971
0.04420971
0.04420971
0.04420971
0.04420971
0.04420971
0.04420971
0.04420971
0.04420971
0.04420971
0.04420971
0.04420971
0.04420971
0.04420971
0.04420971
0.04420971
0.04420971
0.04420971
0.04420971
0.04420971
0.04420971
0.04420971
0.04420971
0.04420971
0.04420971
0.04420971
0.04420971
0.04420971
0.04420971
0.04420971
0.04420971
0.04420971
0.04420971
0.04420971
0.04420971
0.04420971
0.04420971
0.04420971
0.04420971
0.04420971
0.04420971
0.04420971
0.04420971
0.04420971
0.04420971
0.04420971
0.04420971
0.04420971
0.04420971
0.04420971
0.04420971
0.04420971
0.04420971
0.04420971
0.04420971
0.04420971
0.04420971
0.04420971
0.04420971
0.04420971
0.04420971
0.04420971
0.04420971
0.04420971
0.04420971
0.04420971
0.04420971
0.04420971
0.04420971
0.04420971
0.04420971
0.04420971
0.04420971
0.04420971
0.04420971
0.04420971
0.04420971
0.04420971
0.04420971
0.04420971
0.04420971
0.04420971
0.04420971
0.04420971
0.04420971
0.04420971
0.04420971
0.04420971
0.04420971
0.04420971
0.04420971
0.04420971
0.04420971
0.04420971
0.04420971
0.04420971
0.04420971
0.04420971
0.04420971
0.04420971
0.04420971
0.04420971
0.04420971
0.04420971
0.04420971
0.04420971
0.04420971
0.04420971
0.04420971
0.04420971
0.04420971
0.04420971
0.04420971
0.04420971
0.04420971
0.04420971
0.04420971
0.04420971
0.04420971
0.04420971
0.04420971
0.04420971
0.04420971
0.04420971
0.04420971
0.04420971
0.04420971
0.04420971
0.04420971
0.04420971
0.04420971
0.04420971
0.04420971
0.04420971
0.04420971
0.04420971
0.04420971
0.04420971
0.04420971
0.04420971
0.04420971
0.04420971
0.04420971
0.04420971
0.04420971
0.04420971
0.04420971
0.04420971
0.04420971
0.04420971
0.04420971
0.04420971
0.04420971
0.04420971
0.04420971
0.04420971
0.04420971
0.04420971
0.04420971
0.04420971
0.04420971
0.04420971
0.04420971
0.04420971
0.04420971


VECTORS d1 FLOAT
0 -0.8928532 0.4503478
-0.05173826 -0.875482 0.4804731
-0.1046989 -0.8542526 0.5092058
-0.1586314 -0.82901 0.5362635
-0.2132481 -0.7996294 0.5613538
-0.2682251 -0.7660223 0.584179
-0.3232038 -0.7281422 0.6044404
-0.3777936 -0.6859901 0.6218437
-0.4315757 -0.6396194 0.6361049
-0.4841082 -0.5891402 0.6469568
-0.5349326 -0.5347224 0.6541552
-0.5835813 -0.4765971 0.6574862
-0.6295855 -0.4150574 0.656772
-0.672485 -0.3504566 0.6518774
-0.7118375 -0.283205 0.6427148
-0.7472285 -0.2137649 0.6292489
-0.7782809 -0.1426437 0.6114994
-0.8046644 -0.07038509 0.5895431
-0.8261031 0.002440344 0.5635137
-0.8423826 0.07524652 0.5336006
-0.8533551 0.1474434 0.5000456
-0.8589429 0.2184488 0.4631385
-0.8591397 0.2877004 0.4232109
-0.85401 0.3546667 0.3806291
-0.8436863 0.4188567 0.3357864
-0.828365 0.4798292 0.2890942
-0.8083 0.5371992 0.2409734
-0.7837956 0.5906434 0.191846
-0.755198 0.6399031 0.1421267
-0.7228867 0.6847854 0.09221569
-0.6872648 0.7251631 0.04249186
-0.6487504 0.7609718 -0.006692533
-0.6077677 0.7922068 -0.05501624
-0.5647388 0.8189181 -0.1021922
-0.5200771 0.8412044 -0.1479694
-0.4741802 0.8592075 -0.1921341
-0.4274255 0.8731052 -0.2345095
-0.3801657 0.8831047 -0.2749546
-0.3327259 0.8894363 -0.3133633
-0.2854017 0.8923468 -0.3496615
-0.2384577 0.8920942 -0.3838045
-0.1921277 0.8889422 -0.4157748
-0.1466147 0.8831558 -0.4455782
-0.102092 0.874997 -0.4732414
-0.05870466 0.8647219 -0.4988083
-0.01657099 0.8525776 -0.5223378
0.02421517 0.8388003 -0.5439004
0.06358249 0.8236136 -0.563576
0.10148 0.8072274 -0.5814515
0.1378747 0.7898371 -0.5976186
0.1727496 0.7716234 -0.6121722
0.2061018 0.7527523 -0.6252088
0.2379399 0.7333748 -0.6368249
0.2682829 0.7136281 -0.647116
0.2971582 0.6936355 -0.6561759
0.3246 0.6735071 -0.6640956
0.3506483 0.6533409 -0.670963
0.3753471 0.6332235 -0.6768623
0.3987438 0.6132306 -0.6818736
0.4208883 0.5934281 -0.686073
0.4418317 0.5738728 -0.6895323
0.4616261 0.5546133 -0.6923189
0.4803239 0.5356906 -0.6944959
0.4979771 0.5171392 -0.6961221
0.514637 0.498987 -0.6972522
0.5303542 0.481257 -0.6979371
0.5451778 0.4639669 -0.6982234
0.5591556 0.4471303 -0.6981544
0.5723335 0.4307569 -0.6977699
0.5847562 0.4148532 -0.6971062
0.596466 0.3994227 -0.6961967
0.6075039 0.3844661 -0.6950718
0.6179087 0.3699823 -0.6937593
0.6277174 0.3559681 -0.6922843
0.6369653 0.3424186 -0.6906698
0.6456857 0.3293276 -0.6889364
0.6539102 0.3166879 -0.6871028
0.6616687 0.304491 -0.685186
0.6689894 0.2927279 -0.6832009
0.6758991 0.2813888 -0.6811613
0.6824227 0.2704636 -0.6790794
0.6885839 0.2599414 -0.6769658
0.6944049 0.2498115 -0.6748304
0.6999066 0.2400626 -0.6726817
0.7051088 0.2306835 -0.6705272
0.7100297 0.2216628 -0.6683738
0.7146866 0.2129893 -0.6662271
0.7190959 0.2046516 -0.6640924
0.7232727 0.1966385 -0.6619742
0.7272313 0.1889391 -0.6598763
0.7309849 0.1815422 -0.657802
0.7345462 0.1744372 -0.6557542
0.7379267 0.1676134 -0.6537354
0.7411374 0.1610606 -0.6517475
0.7441886 0.1547686 -0.6497923
0.7470898 0.1487275 -0.6478711
0.7498499 0.1429277 -0.6459851
0.7524773 0.1373596 -0.6441352
0.7549798 0.1320143 -0.6423221
0.7573646 0.1268828 -0.6405463
0.7596386 0.1219565 -0.6388082
0.7618079 0.1172271 -0.6371079
0.7638787 0.1126865 -0.6354456
0.7658562 0.1083268 -0.6338214
0.7677457 0.1041406 -0.6322351
0.769552 0.1001206 -0.6306866
0.7712795 0.09625974 -0.6291757
0.7729322 0.09255137 -0.6277022
0.7745142 0.08898898 -0.6262657
0.776029 0.08556636 -0.6248659
0.77748 0.08227754 -0.6235024
0.7788703 0.0791168 -0.6221749
0.7802028 0.07607866 -0.6208829
0.7814804 0.07315787 -0.619626
0.7827054 0.0703494 -0.6184037
0.7838805 0.06764846 -0.6172156
0.7850077 0.06505043 -0.6160611
0.7860893 0.06255094 -0.6149398
0.7871272 0.06014578 -0.6138512
0.7881232 0.05783093 -0.6127947
0.7890792 0.05560256 -0.6117699
0.7899968 0.053457 -0.6107761
0.7908776 0.05139074 -0.6098128
0.791723 0.04940045 -0.6088795
0.7925345 0.04748291 -0.6079757
0.7933134 0.04563506 -0.6071008
0.7940609 0.04385396 -0.6062541
0.7947783 0.04213682 -0.6054353
0.7954668 0.04048094 -0.6046436
0.7961273 0.03888376 -0.6038786
0.7967609 0.0373428 -0.6031397
0.7973687 0.03585571 -0.6024263
0.7979516 0.03442021 -0.6017379
0.7985104 0.03303413 -0.6010739
0.7990461 0.03169538 -0.6004338
0.7995594 0.03040195 -0.599817
0.8000512 0.02915191 -0.599223
0.8005222 0.02794341 -0.5986513
0.8009731 0.02677466 -0.5981013
0.8014046 0.02564393 -0.5975726
0.8018174 0.02454958 -0.5970646
0.8022121 0.02348999 -0.5965769
0.8025892 0.02246364 -0.596109
0.8029494 0.02146903 -0.5956604
0.8032933 0.02050472 -0.5952306
0.8036212 0.01956933 -0.5948193
0.8039338 0.0186615 -0.5944259
0.8042315 0.01777994 -0.5940501
0.8045147 0.01692339 -0.5936915
0.804784 0.01609062 -0.5933497
0.8050396 0.01528045 -0.5930243
0.805282 0.01449173 -0.5927149
0.8055115 0.01372333 -0.5924212
0.8057285 0.01297417 -0.5921429
0.8059333 0.01224319 -0.5918797
0.8061263 0.01152936 -0.5916312
0.8063077 0.01083166 -0.5913971
0.8064778 0.01014913 -0.5911773
0.8066368 0.009480791 -0.5909714
0.8067851 0.008825711 -0.5907791
0.8069227 0.008182969 -0.5906004
0.80705 0.007551663 -0.5904348
0.8071671 0.006930909 -0.5902824
0.8072741 0.006319836 -0.5901428
0.8073714 0.005717589 -0.5900159
0.8074589 0.005123327 -0.5899015
0.8075369 0.004536217 -0.5897996
0.8076054 0.003955439 -0.58971
0.8076646 0.003380182 -0.5896325
0.8077145 0.002809642 -0.5895671
0.8077553 0.002243023 -0.5895137
0.8077869 0.001679534 -0.5894722
0.8078095 0.001118388 -0.5894426
0.807823 0.0005588029 -0.5894249
0.8078275 -2.876734e-09 -0.589419
0.807823 -0.0005588086 -0.5894249
0.8078095 -0.001118394 -0.5894426
0.8077869 -0.00167954 -0.5894722
0.8077553 -0.002243029 -0.5895137
0.8077145 -0.002809648 -0.5895671
0.8076646 -0.003380188 -0.5896325
0.8076054 -0.003955445 -0.58971
0.8075369 -0.004536223 -0.5897996
0.8074589 -0.005123332 -0.5899015
0.8073714 -0.005717595 -0.5900159
0.8072741 -0.006319842 -0.5901428
0.8071671 -0.006930914 -0.5902824
0.80705 -0.007551669 -0.5904348
0.8069227 -0.008182975 -0.5906004
0.8067851 -0.008825717 -0.5907791
0.8066368 -0.009480797 -0.5909714
0.8064778 -0.01014913 -0.5911773
0.8063077 -0.01083167 -0.5913971
0.8061263 -0.01152936 -0.5916312
0.8059333 -0.01224319 -0.5918797
0.8057285 -0.01297417 -0.5921429
0.8055115 -0.01372333 -0.5924212
0.805282 -0.01449173 -0.5927149
0.8050396 -0.01528046 -0.5930243
0.804784 -0.01609063 -0.5933497
0.8045147 -0.01692339 -0.5936915
0.8042315 -0.01777995 -0.5940501
0.8039338 -0.01866151 -0.5944259
0.8036212 -0.01956933 -0.5948193
0.8032933 -0.02050473 -0.5952306
0.8029494 -0.02146903 -0.5956604
0.8025892 -0.02246364 -0.596109
0.8022121 -0.02349 -0.5965769
0.8018174 -0.02454958 -0.5970646
0.8014046 -0.02564394 -0.5975726
0.8009731 -0.02677466 -0.5981013
0.8005222 -0.02794341 -0.5986513
0.8000512 -0.02915192 -0.599223
0.7995594 -0.03040195 -0.599817
0.7990461 -0.03169538 -0.6004338