# vtk DataFile Version 2.0
Written badly by Kevin Korner
ASCII
DATASET POLYDATA
POINTS 350 FLOAT
0 0 0
0.00286533 0 0
0.005730168 1.004454e-05 5.21011e-05
0.008593535 3.109324e-05 0.0001560058
0.01145446 6.409123e-05 0.0003113728
0.01431197 0.0001099679 0.000517818
0.01716512 0.0001696359 0.0007749153
0.02001296 0.0002439896 0.001082198
0.02285454 0.0003339048 0.001439158
0.02568895 0.0004402368 0.00184525
0.02851528 0.0005638201 0.002299891
0.03133264 0.0007054675 0.00280246
0.03414013 0.0008659687 0.003352303
0.03693691 0.00104609 0.003948729
0.03972211 0.001246574 0.004591019
0.04249493 0.001468137 0.005278419
0.04525454 0.001711471 0.006010149
0.04800017 0.001977243 0.006785398
0.05073104 0.002266091 0.007603331
0.05344642 0.002578627 0.008463087
0.05614557 0.002915438 0.009363783
0.0588278 0.003277079 0.01030451
0.06149243 0.003664082 0.01128435
0.06413881 0.004076949 0.01230236
0.06676631 0.004516153 0.01335756
0.06937432 0.00498214 0.014449
0.07196227 0.005475328 0.01557568
0.0745296 0.005996109 0.0167366
0.07707577 0.006544843 0.01793074
0.0796003 0.007121865 0.01915709
0.08210269 0.007727483 0.02041463
0.08458249 0.008361977 0.02170231
0.08703927 0.0090256 0.02301909
0.08947263 0.009718579 0.02436395
0.09188219 0.01044111 0.02573584
0.0942676 0.01119338 0.02713371
0.09662852 0.01197553 0.02855652
0.09896466 0.01278769 0.03000324
0.1012757 0.01362995 0.03147283
0.1035615 0.0145024 0.03296426
0.1058216 0.01540509 0.0344765
0.108056 0.01633805 0.03600855
0.1102645 0.0173013 0.03755938
0.1124468 0.01829482 0.039128
0.1146028 0.01931858 0.04071342
0.1167324 0.02037253 0.04231465
0.1188356 0.0214566 0.04393074
0.1209121 0.0225707 0.04556072
0.122962 0.02371473 0.04720365
0.1249852 0.02488857 0.0488586
0.1269817 0.02609206 0.05052466
0.1289515 0.02732507 0.05220093
0.1308945 0.02858742 0.05388652
0.1328108 0.02987892 0.05558057
0.1347005 0.03119938 0.05728222
0.1365636 0.03254859 0.05899063
0.1384001 0.03392633 0.060705
0.1402102 0.03533236 0.06242451
0.141994 0.03676644 0.06414839
0.1437515 0.03822831 0.06587586
0.1454829 0.03971772 0.06760618
0.1471884 0.04123438 0.06933862
0.148868 0.04277802 0.07107246
0.1505219 0.04434835 0.07280702
0.1521503 0.04594507 0.07454162
0.1537534 0.04756789 0.0762756
0.1553313 0.04921649 0.07800831
0.1568843 0.05089057 0.07973915
0.1584126 0.0525898 0.0814675
0.1599163 0.05431387 0.08319278
0.1613957 0.05606244 0.08491442
0.1628509 0.0578352 0.08663188
0.1642823 0.05963181 0.08834461
0.16569 0.06145194 0.0900521
0.1670744 0.06329525 0.09175386
0.1684355 0.06516141 0.0934494
0.1697737 0.06705007 0.09513825
0.1710893 0.06896091 0.09681997
0.1723824 0.07089358 0.09849412
0.1736533 0.07284774 0.1001603
0.1749023 0.07482306 0.101818
0.1761297 0.07681919 0.103467
0.1773356 0.07883581 0.1051069
0.1785204 0.08087258 0.1067372
0.1796843 0.08292916 0.1083576
0.1808276 0.08500523 0.1099679
0.1819506 0.08710045 0.1115676
0.1830534 0.0892145 0.1131565
0.1841364 0.09134705 0.1147343
0.1851999 0.09349778 0.1163007
0.186244 0.09566637 0.1178555
0.187269 0.09785251 0.1193982
0.1882753 0.1000559 0.1209288
0.1892629 0.1022762 0.122447
0.1902323 0.1045131 0.1239525
0.1911837 0.1067663 0.1254452
0.1921172 0.1090356 0.1269247
0.1930332 0.1113206 0.128391
0.1939319 0.113621 0.1298438
0.1948136 0.1159365 0.1312829
0.1956784 0.118267 0.1327081
0.1965266 0.120612 0.1341194
0.1973584 0.1229713 0.1355164
0.1981741 0.1253447 0.1368991
0.1989739 0.1277318 0.1382673
0.199758 0.1301325 0.1396209
0.2005267 0.1325464 0.1409596
0.20128 0.1349733 0.1422835
0.2020184 0.137413 0.1435923
0.2027419 0.1398652 0.1448859
0.2034507 0.1423297 0.1461641
0.2041452 0.1448062 0.147427
0.2048253 0.1472945 0.1486743
0.2054915 0.1497944 0.1499059
0.2061437 0.1523056 0.1511218
0.2067823 0.154828 0.1523218
0.2074074 0.1573613 0.1535058
0.2080191 0.1599053 0.1546736
0.2086177 0.1624598 0.1558253
0.2092032 0.1650246 0.1569606
0.209776 0.1675995 0.1580795
0.210336 0.1701843 0.1591819
0.2108835 0.1727789 0.1602677
0.2114187 0.1753829 0.1613367
0.2119415 0.1779962 0.1623889
0.2124523 0.1806187 0.1634241
0.2129512 0.1832502 0.1644423
0.2134382 0.1858904 0.1654433
0.2139135 0.1885393 0.166427
0.2143772 0.1911966 0.1673934
0.2148295 0.1938622 0.1683423
0.2152704 0.1965358 0.1692735
0.2157001 0.1992174 0.170187
0.2161186 0.2019068 0.1710827
0.2165262 0.2046038 0.1719604
0.2169228 0.2073082 0.17282
0.2173086 0.2100199 0.1736614
0.2176836 0.2127387 0.1744844
0.218048 0.2154646 0.1752889
0.2184018 0.2181972 0.1760748
0.2187451 0.2209365 0.1768419
0.2190781 0.2236823 0.1775901
0.2194006 0.2264345 0.1783192
0.2197129 0.2291929 0.1790291
0.2200151 0.2319573 0.1797196
0.220307 0.2347276 0.1803906
0.2205889 0.2375036 0.1810419
0.2208607 0.2402853 0.1816733
0.2211226 0.2430724 0.1822847
0.2213745 0.2458647 0.1828758
0.2216166 0.2486622 0.1834465
0.2218487 0.2514646 0.1839967
0.2220711 0.2542718 0.184526
0.2222837 0.2570836 0.1850344
0.2224865 0.2599 0.1855217
0.2226797 0.2627206 0.1859875
0.2228631 0.2655453 0.1864319
0.2230368 0.2683739 0.1868544
0.2232009 0.2712064 0.187255
0.2233553 0.2740424 0.1876334
0.2235001 0.2768818 0.1879895
0.2236352 0.2797245 0.188323
0.2237607 0.2825702 0.1886337
0.2238766 0.2854186 0.1889214
0.2239828 0.2882698 0.189186
0.2240795 0.2911233 0.1894272
0.2241664 0.293979 0.1896449
0.2242438 0.2968367 0.1898389
0.2243115 0.2996962 0.190009
0.2243695 0.3025572 0.1901551
0.2244179 0.3054195 0.1902771
0.2244566 0.3082829 0.1903748
0.2244857 0.3111472 0.1904482
0.2245051 0.314012 0.1904971
0.2245147 0.3168772 0.1905216
0.2245147 0.3197426 0.1905216
0.2245051 0.3226078 0.1904971
0.2244857 0.3254726 0.1904482
0.2244566 0.3283368 0.1903748
0.2244179 0.3312002 0.1902771
0.2243695 0.3340626 0.1901551
0.2243115 0.3369236 0.190009
0.2242438 0.3397831 0.1898389
0.2241664 0.3426408 0.1896449
0.2240795 0.3454965 0.1894272
0.2239828 0.34835 0.189186
0.2238766 0.3512011 0.1889214
0.2237607 0.3540496 0.1886337
0.2236352 0.3568953 0.188323
0.2235001 0.3597379 0.1879895
0.2233553 0.3625774 0.1876334
0.2232009 0.3654134 0.187255
0.2230368 0.3682458 0.1868544
0.2228631 0.3710745 0.1864319
0.2226797 0.3738992 0.1859875
0.2224865 0.3767198 0.1855217
0.2222837 0.3795361 0.1850344
0.2220711 0.382348 0.184526
0.2218487 0.3851552 0.1839967
0.2216166 0.3879576 0.1834465
0.2213745 0.3907551 0.1828758
0.2211226 0.3935474 0.1822847
0.2208607 0.3963345 0.1816733
0.2205889 0.3991161 0.1810419
0.220307 0.4018922 0.1803906
0.2200151 0.4046625 0.1797196
0.2197129 0.4074269 0.1790291
0.2194006 0.4101853 0.1783192
0.2190781 0.4129375 0.1775901
0.2187451 0.4156833 0.1768419
0.2184018 0.4184226 0.1760748
0.218048 0.4211552 0.1752889
0.2176836 0.423881 0.1744844
0.2173086 0.4265999 0.1736614
0.2169228 0.4293116 0.17282
0.2165262 0.432016 0.1719604
0.2161186 0.434713 0.1710827
0.2157001 0.4374024 0.170187
0.2152704 0.440084 0.1692735
0.2148295 0.4427576 0.1683423
0.2143772 0.4454232 0.1673934
0.2139135 0.4480805 0.166427
0.2134382 0.4507293 0.1654433
0.2129512 0.4533696 0.1644423
0.2124523 0.456001 0.1634241
0.2119415 0.4586235 0.1623889
0.2114187 0.4612369 0.1613367
0.2108835 0.4638409 0.1602677
0.210336 0.4664354 0.1591819
0.209776 0.4690202 0.1580795
0.2092032 0.4715951 0.1569606
0.2086177 0.4741599 0.1558253
0.2080191 0.4767144 0.1546736
0.2074074 0.4792585 0.1535058
0.2067823 0.4817918 0.1523218
0.2061437 0.4843141 0.1511218
0.2054915 0.4868254 0.1499059
0.2048253 0.4893253 0.1486743
0.2041452 0.4918136 0.147427
0.2034507 0.4942901 0.1461641
0.2027419 0.4967546 0.1448859
0.2020184 0.4992068 0.1435923
0.20128 0.5016464 0.1422835
0.2005267 0.5040734 0.1409596
0.199758 0.5064873 0.1396209
0.1989739 0.508888 0.1382673
0.1981741 0.5112751 0.1368991
0.1973584 0.5136485 0.1355164
0.1965266 0.5160078 0.1341194
0.1956784 0.5183528 0.1327081
0.1948136 0.5206832 0.1312829
0.1939319 0.5229988 0.1298438
0.1930332 0.5252992 0.128391
0.1921172 0.5275842 0.1269247
0.1911837 0.5298534 0.1254452
0.1902323 0.5321067 0.1239525
0.1892629 0.5343436 0.122447
0.1882753 0.5365639 0.1209288
0.187269 0.5387673 0.1193982
0.186244 0.5409534 0.1178555
0.1851999 0.543122 0.1163007
0.1841364 0.5452727 0.1147343
0.1830534 0.5474053 0.1131565
0.1819506 0.5495193 0.1115676
0.1808276 0.5516145 0.1099679
0.1796843 0.5536906 0.1083576
0.1785204 0.5557472 0.1067372
0.1773356 0.557784 0.1051069
0.1761297 0.5598006 0.103467
0.1749023 0.5617967 0.101818
0.1736533 0.563772 0.1001603
0.1723824 0.5657262 0.09849412
0.1710893 0.5676589 0.09681997
0.1697737 0.5695697 0.09513825
0.1684355 0.5714584 0.0934494
0.1670744 0.5733245 0.09175386
0.16569 0.5751678 0.0900521
0.1642823 0.576988 0.08834461
0.1628509 0.5787846 0.08663188
0.1613957 0.5805573 0.08491442
0.1599163 0.5823059 0.08319278
0.1584126 0.58403 0.0814675
0.1568843 0.5857292 0.07973915
0.1553314 0.5874033 0.07800831
0.1537534 0.5890519 0.0762756
0.1521503 0.5906747 0.07454162
0.1505219 0.5922714 0.07280702
0.148868 0.5938418 0.07107246
0.1471884 0.5953854 0.06933862
0.1454829 0.5969021 0.06760618
0.1437515 0.5983915 0.06587586
0.141994 0.5998533 0.06414839
0.1402102 0.6012874 0.06242451
0.1384001 0.6026934 0.060705
0.1365636 0.6040712 0.05899064
0.1347005 0.6054204 0.05728222
0.1328108 0.6067409 0.05558057
0.1308945 0.6080324 0.05388652
0.1289515 0.6092947 0.05220093
0.1269817 0.6105277 0.05052466
0.1249852 0.6117312 0.0488586
0.122962 0.612905 0.04720365
0.1209121 0.6140491 0.04556072
0.1188356 0.6151632 0.04393074
0.1167324 0.6162472 0.04231465
0.1146028 0.6173012 0.04071342
0.1124468 0.618325 0.039128
0.1102645 0.6193185 0.03755938
0.108056 0.6202817 0.03600855
0.1058216 0.6212147 0.0344765
0.1035615 0.6221174 0.03296426
0.1012757 0.6229898 0.03147283
0.09896466 0.6238321 0.03000324
0.09662852 0.6246442 0.02855652
0.0942676 0.6254264 0.02713371
0.09188219 0.6261787 0.02573584
0.08947263 0.6269012 0.02436395
0.08703927 0.6275942 0.02301909
0.08458249 0.6282578 0.02170231
0.08210269 0.6288923 0.02041463
0.0796003 0.6294979 0.01915709
0.07707577 0.6300749 0.01793074
0.0745296 0.6306237 0.0167366
0.07196227 0.6311444 0.01557568
0.06937432 0.6316376 0.014449
0.06676631 0.6321036 0.01335756
0.06413881 0.6325428 0.01230236
0.06149243 0.6329557 0.01128435
0.0588278 0.6333427 0.01030451
0.05614557 0.6337043 0.009363783
0.05344642 0.6340411 0.008463087
0.05073104 0.6343537 0.007603331
0.04800017 0.6346425 0.006785398
0.04525454 0.6349083 0.006010149
0.04249493 0.6351516 0.005278419
0.03972211 0.6353732 0.004591019
0.03693691 0.6355737 0.003948729
0.03414013 0.6357538 0.003352303
0.03133264 0.6359143 0.00280246
0.02851528 0.636056 0.002299891
0.02568895 0.6361795 0.00184525
0.02285454 0.6362859 0.001439158
0.02001296 0.6363758 0.001082198
0.01716512 0.6364501 0.0007749153
0.01431197 0.6365098 0.000517818
0.01145446 0.6365557 0.0003113728
0.008593535 0.6365887 0.0001560058
0.005730168 0.6366097 5.21011e-05
0.00286533 0.6366198 0
0 0.6366198 0

LINES 349 1047
2 0 1
2 1 2
2 2 3
2 3 4
2 4 5
2 5 6
2 6 7
2 7 8
2 8 9
2 9 10
2 10 11
2 11 12
2 12 13
2 13 14
2 14 15
2 15 16
2 16 17
2 17 18
2 18 19
2 19 20
2 20 21
2 21 22
2 22 23
2 23 24
2 24 25
2 25 26
2 26 27
2 27 28
2 28 29
2 29 30
2 30 31
2 31 32
2 32 33
2 33 34
2 34 35
2 35 36
2 36 37
2 37 38
2 38 39
2 39 40
2 40 41
2 41 42
2 42 43
2 43 44
2 44 45
2 45 46
2 46 47
2 47 48
2 48 49
2 49 50
2 50 51
2 51 52
2 52 53
2 53 54
2 54 55
2 55 56
2 56 57
2 57 58
2 58 59
2 59 60
2 60 61
2 61 62
2 62 63
2 63 64
2 64 65
2 65 66
2 66 67
2 67 68
2 68 69
2 69 70
2 70 71
2 71 72
2 72 73
2 73 74
2 74 75
2 75 76
2 76 77
2 77 78
2 78 79
2 79 80
2 80 81
2 81 82
2 82 83
2 83 84
2 84 85
2 85 86
2 86 87
2 87 88
2 88 89
2 89 90
2 90 91
2 91 92
2 92 93
2 93 94
2 94 95
2 95 96
2 96 97
2 97 98
2 98 99
2 99 100
2 100 101
2 101 102
2 102 103
2 103 104
2 104 105
2 105 106
2 106 107
2 107 108
2 108 109
2 109 110
2 110 111
2 111 112
2 112 113
2 113 114
2 114 115
2 115 116
2 116 117
2 117 118
2 118 119
2 119 120
2 120 121
2 121 122
2 122 123
2 123 124
2 124 125
2 125 126
2 126 127
2 127 128
2 128 129
2 129 130
2 130 131
2 131 132
2 132 133
2 133 134
2 134 135
2 135 136
2 136 137
2 137 138
2 138 139
2 139 140
2 140 141
2 141 142
2 142 143
2 143 144
2 144 145
2 145 146
2 146 147
2 147 148
2 148 149
2 149 150
2 150 151
2 151 152
2 152 153
2 153 154
2 154 155
2 155 156
2 156 157
2 157 158
2 158 159
2 159 160
2 160 161
2 161 162
2 162 163
2 163 164
2 164 165
2 165 166
2 166 167
2 167 168
2 168 169
2 169 170
2 170 171
2 171 172
2 172 173
2 173 174
2 174 175
2 175 176
2 176 177
2 177 178
2 178 179
2 179 180
2 180 181
2 181 182
2 182 183
2 183 184
2 184 185
2 185 186
2 186 187
2 187 188
2 188 189
2 189 190
2 190 191
2 191 192
2 192 193
2 193 194
2 194 195
2 195 196
2 196 197
2 197 198
2 198 199
2 199 200
2 200 201
2 201 202
2 202 203
2 203 204
2 204 205
2 205 206
2 206 207
2 207 208
2 208 209
2 209 210
2 210 211
2 211 212
2 212 213
2 213 214
2 214 215
2 215 216
2 216 217
2 217 218
2 218 219
2 219 220
2 220 221
2 221 222
2 222 223
2 223 224
2 224 225
2 225 226
2 226 227
2 227 228
2 228 229
2 229 230
2 230 231
2 231 232
2 232 233
2 233 234
2 234 235
2 235 236
2 236 237
2 237 238
2 238 239
2 239 240
2 240 241
2 241 242
2 242 243
2 243 244
2 244 245
2 245 246
2 246 247
2 247 248
2 248 249
2 249 250
2 250 251
2 251 252
2 252 253
2 253 254
2 254 255
2 255 256
2 256 257
2 257 258
2 258 259
2 259 260
2 260 261
2 261 262
2 262 263
2 263 264
2 264 265
2 265 266
2 266 267
2 267 268
2 268 269
2 269 270
2 270 271
2 271 272
2 272 273
2 273 274
2 274 275
2 275 276
2 276 277
2 277 278
2 278 279
2 279 280
2 280 281
2 281 282
2 282 283
2 283 284
2 284 285
2 285 286
2 286 287
2 287 288
2 288 289
2 289 290
2 290 291
2 291 292
2 292 293
2 293 294
2 294 295
2 295 296
2 296 297
2 297 298
2 298 299
2 299 300
2 300 301
2 301 302
2 302 303
2 303 304
2 304 305
2 305 306
2 306 307
2 307 308
2 308 309
2 309 310
2 310 311
2 311 312
2 312 313
2 313 314
2 314 315
2 315 316
2 316 317
2 317 318
2 318 319
2 319 320
2 320 321
2 321 322
2 322 323
2 323 324
2 324 325
2 325 326
2 326 327
2 327 328
2 328 329
2 329 330
2 330 331
2 331 332
2 332 333
2 333 334
2 334 335
2 335 336
2 336 337
2 337 338
2 338 339
2 339 340
2 340 341
2 341 342
2 342 343
2 343 344
2 344 345
2 345 346
2 346 347
2 347 348
2 348 349


POINT_DATA 350
SCALARS a FLOAT 1
LOOKUP_TABLE default
0.0005894628
0.0005894628
0.0005894628
0.0005894628
0.0005894628
0.0005894628
0.0005894628
0.0005894628
0.0005894628
0.0005894628
0.0005894628
0.0005894628
0.0005894628
0.0005894628
0.0005894628
0.0005894628
0.0005894628
0.0005894628
0.0005894628
0.0005894628
0.0005894628
0.0005894628
0.0005894628
0.0005894628
0.0005894628
0.0005894628
0.0005894628
0.0005894628
0.0005894628
0.0005894628
0.0005894628
0.0005894628
0.0005894628
0.0005894628
0.0005894628
0.0005894628
0.0005894628
0.0005894628
0.0005894628
0.0005894628
0.0005894628
0.0005894628
0.0005894628
0.0005894628
0.0005894628
0.0005894628
0.0005894628
0.0005894628
0.0005894628
0.0005894628
0.0005894628
0.0005894628
0.0005894628
0.0005894628
0.0005894628
0.0005894628
0.0005894628
0.0005894628
0.0005894628
0.0005894628
0.0005894628
0.0005894628
0.0005894628
0.0005894628
0.0005894628
0.0005894628
0.0005894628
0.0005894628
0.0005894628
0.0005894628
0.0005894628
0.0005894628
0.0005894628
0.0005894628
0.0005894628
0.0005894628
0.0005894628
0.0005894628
0.0005894628
0.0005894628
0.0005894628
0.0005894628
0.0005894628
0.0005894628
0.0005894628
0.0005894628
0.0005894628
0.0005894628
0.0005894628
0.0005894628
0.0005894628
0.0005894628
0.0005894628
0.0005894628
0.0005894628
0.0005894628
0.0005894628
0.0005894628
0.0005894628
0.0005894628
0.0005894628
0.0005894628
0.0005894628
0.0005894628
0.0005894628
0.0005894628
0.0005894628
0.0005894628
0.0005894628
0.0005894628
0.0005894628
0.0005894628
0.0005894628
0.0005894628
0.0005894628
0.0005894628
0.0005894628
0.0005894628
0.0005894628
0.0005894628
0.0005894628
0.0005894628
0.0005894628
0.0005894628
0.0005894628
0.0005894628
0.0005894628
0.0005894628
0.0005894628
0.0005894628
0.0005894628
0.0005894628
0.0005894628
0.0005894628
0.0005894628
0.0005894628
0.0005894628
0.0005894628
0.0005894628
0.0005894628
0.0005894628
0.0005894628
0.0005894628
0.0005894628
0.0005894628
0.0005894628
0.0005894628
0.0005894628
0.0005894628
0.0005894628
0.0005894628
0.0005894628
0.0005894628
0.0005894628
0.0005894628
0.0005894628
0.0005894628
0.0005894628
0.0005894628
0.0005894628
0.0005894628
0.0005894628
0.0005894628
0.0005894628
0.0005894628
0.0005894628
0.0005894628
0.0005894628
0.0005894628
0.0005894628
0.0005894628
0.0005894628
0.0005894628
0.0005894628
0.0005894628
0.0005894628
0.0005894628
0.0005894628
0.0005894628
0.0005894628
0.0005894628
0.0005894628
0.0005894628
0.0005894628
0.0005894628
0.0005894628
0.0005894628
0.0005894628
0.0005894628
0.0005894628
0.0005894628
0.0005894628
0.0005894628
0.0005894628
0.0005894628
0.0005894628
0.0005894628
0.0005894628
0.0005894628
0.0005894628
0.0005894628
0.0005894628
0.0005894628
0.0005894628
0.0005894628
0.0005894628
0.0005894628
0.0005894628
0.0005894628
0.0005894628
0.0005894628
0.0005894628
0.0005894628
0.0005894628
0.0005894628
0.0005894628
0.0005894628
0.0005894628
0.0005894628
0.0005894628
0.0005894628
0.0005894628
0.0005894628
0.0005894628
0.0005894628
0.0005894628
0.0005894628
0.0005894628
0.0005894628
0.0005894628
0.0005894628
0.0005894628
0.0005894628
0.0005894628
0.0005894628
0.0005894628
0.0005894628
0.0005894628
0.0005894628
0.0005894628
0.0005894628
0.0005894628
0.0005894628
0.0005894628
0.0005894628
0.0005894628
0.0005894628
0.0005894628
0.0005894628
0.0005894628
0.0005894628
0.0005894628
0.0005894628
0.0005894628
0.0005894628
0.0005894628
0.0005894628
0.0005894628
0.0005894628
0.0005894628
0.0005894628
0.0005894628
0.0005894628
0.0005894628
0.0005894628
0.0005894628
0.0005894628
0.0005894628
0.0005894628
0.0005894628
0.0005894628
0.0005894628
0.0005894628
0.0005894628
0.0005894628
0.0005894628
0.0005894628
0.0005894628
0.0005894628
0.0005894628
0.0005894628
0.0005894628
0.0005894628
0.0005894628
0.0005894628
0.0005894628
0.0005894628
0.0005894628
0.0005894628
0.0005894628
0.0005894628
0.0005894628
0.0005894628
0.0005894628
0.0005894628
0.0005894628
0.0005894628
0.0005894628
0.0005894628
0.0005894628
0.0005894628
0.0005894628
0.0005894628
0.0005894628
0.0005894628
0.0005894628
0.0005894628
0.0005894628
0.0005894628
0.0005894628
0.0005894628
0.0005894628
0.0005894628
0.0005894628
0.0005894628
0.0005894628
0.0005894628
0.0005894628
0.0005894628
0.0005894628
0.0005894628
0.0005894628
0.0005894628
0.0005894628
0.0005894628
0.0005894628
0.0005894628
0.0005894628
0.0005894628
0.0005894628
0.0005894628
0.0005894628
0.0005894628
0.0005894628
0.0005894628
0.0005894628
0.0005894628
0.0005894628
0.0005894628
0.0005894628
0.0005894628
0.0005894628
0.0005894628
0.0005894628
0.0005894628
0.0005894628
0.0005894628
0.0005894628
0.0005894628
0.0005894628


SCALARS b FLOAT 1
LOOKUP_TABLE default
0.04420971
0.04420971
0.04420971
0.04420971
0.04420971
0.04420971
0.04420971
0.04420971
0.04420971
0.04420971
0.04420971
0.04420971
0.04420971
0.04420971
0.04420971
0.04420971
0.04420971
0.04420971
0.04420971
0.04420971
0.04420971
0.04420971
0.04420971
0.04420971
0.04420971
0.04420971
0.04420971
0.04420971
0.04420971
0.04420971
0.04420971
0.04420971
0.04420971
0.04420971
0.04420971
0.04420971
0.04420971
0.04420971
0.04420971
0.04420971
0.04420971
0.04420971
0.04420971
0.04420971
0.04420971
0.04420971
0.04420971
0.04420971
0.04420971
0.04420971
0.04420971
0.04420971
0.04420971
0.04420971
0.04420971
0.04420971
0.04420971
0.04420971
0.04420971
0.04420971
0.04420971
0.04420971
0.04420971
0.04420971
0.04420971
0.04420971
0.04420971
0.04420971
0.04420971
0.04420971
0.04420971
0.04420971
0.04420971
0.04420971
0.04420971
0.04420971
0.04420971
0.04420971
0.04420971
0.04420971
0.04420971
0.04420971
0.04420971
0.04420971
0.04420971
0.04420971
0.04420971
0.04420971
0.04420971
0.04420971
0.04420971
0.04420971
0.04420971
0.04420971
0.04420971
0.04420971
0.04420971
0.04420971
0.04420971
0.04420971
0.04420971
0.04420971
0.04420971
0.04420971
0.04420971
0.04420971
0.04420971
0.04420971
0.04420971
0.04420971
0.04420971
0.04420971
0.04420971
0.04420971
0.04420971
0.04420971
0.04420971
0.04420971
0.04420971
0.04420971
0.04420971
0.04420971
0.04420971
0.04420971
0.04420971
0.04420971
0.04420971
0.04420971
0.04420971
0.04420971
0.04420971
0.04420971
0.04420971
0.04420971
0.04420971
0.04420971
0.04420971
0.04420971
0.04420971
0.04420971
0.04420971
0.04420971
0.04420971
0.04420971
0.04420971
0.04420971
0.04420971
0.04420971
0.04420971
0.04420971
0.04420971
0.04420971
0.04420971
0.04420971
0.04420971
0.04420971
0.04420971
0.04420971
0.04420971
0.04420971
0.04420971
0.04420971
0.04420971
0.04420971
0.04420971
0.04420971
0.04420971
0.04420971
0.04420971
0.04420971
0.04420971
0.04420971
0.04420971
0.04420971
0.04420971
0.04420971
0.04420971
0.04420971
0.04420971
0.04420971
0.04420971
0.04420971
0.04420971
0.04420971
0.04420971
0.04420971
0.04420971
0.04420971
0.04420971
0.04420971
0.04420971
0.04420971
0.04420971
0.04420971
0.04420971
0.04420971
0.04420971
0.04420971
0.04420971
0.04420971
0.04420971
0.04420971
0.04420971
0.04420971
0.04420971
0.04420971
0.04420971
0.04420971
0.04420971
0.04420971
0.04420971
0.04420971
0.04420971
0.04420971
0.04420971
0.04420971
0.04420971
0.04420971
0.04420971
0.04420971
0.04420971
0.04420971
0.04420971
0.04420971
0.04420971
0.04420971
0.04420971
0.04420971
0.04420971
0.04420971
0.04420971
0.04420971
0.04420971
0.04420971
0.04420971
0.04420971
0.04420971
0.04420971
0.04420971
0.04420971
0.04420971
0.04420971
0.04420971
0.04420971
0.04420971
0.04420971
0.04420971
0.04420971
0.04420971
0.04420971
0.04420971
0.04420971
0.04420971
0.04420971
0.04420971
0.04420971
0.04420971
0.04420971
0.04420971
0.04420971
0.04420971
0.04420971
0.04420971
0.04420971
0.04420971
0.04420971
0.04420971
0.04420971
0.04420971
0.04420971
0.04420971
0.04420971
0.04420971
0.04420971
0.04420971
0.04420971
0.04420971
0.04420971
0.04420971
0.04420971
0.04420971
0.04420971
0.04420971
0.04420971
0.04420971
0.04420971
0.04420971
0.04420971
0.04420971
0.04420971
0.04420971
0.04420971
0.04420971
0.04420971
0.04420971
0.04420971
0.04420971
0.04420971
0.04420971
0.04420971
0.04420971
0.04420971
0.04420971
0.04420971
0.04420971
0.04420971
0.04420971
0.04420971
0.04420971
0.04420971
0.04420971
0.04420971
0.04420971
0.04420971
0.04420971
0.04420971
0.04420971
0.04420971
0.04420971
0.04420971
0.04420971
0.04420971
0.04420971
0.04420971
0.04420971
0.04420971
0.04420971
0.04420971
0.04420971
0.04420971
0.04420971
0.04420971
0.04420971
0.04420971
0.04420971
0.04420971
0.04420971
0.04420971
0.04420971
0.04420971
0.04420971
0.04420971
0.04420971
0.04420971
0.04420971
0.04420971
0.04420971
0.04420971
0.04420971
0.04420971


VECTORS d1 FLOAT
0 0.1799698 0.9836721
-0.0185173 0.1984573 0.9799346
-0.03699279 0.2167744 0.9755206
-0.05541055 0.2349061 0.9704374
-0.0737549 0.2528378 0.9646933
-0.09201037 0.2705554 0.9582974
-0.1101618 0.2880451 0.9512594
-0.1281942 0.3052935 0.94359
-0.146093 0.3222878 0.9353007
-0.1638441 0.3390156 0.9264035
-0.1814335 0.3554651 0.9169114
-0.1988477 0.371625 0.9068376
-0.2160738 0.3874845 0.8961964
-0.233099 0.4030333 0.8850023
-0.2499113 0.4182618 0.8732705
-0.266499 0.433161 0.8610168
-0.2828507 0.4477223 0.8482572
-0.2989559 0.4619379 0.8350082
-0.3148044 0.4758004 0.8212869
-0.3303865 0.4893032 0.8071103
-0.345693 0.5024402 0.7924961
-0.3607155 0.5152059 0.777462
-0.3754457 0.5275954 0.762026
-0.3898763 0.5396043 0.7462062
-0.4040002 0.551229 0.7300208
-0.417811 0.5624664 0.7134883
-0.431303 0.5733137 0.6966269
-0.4444708 0.5837691 0.6794552
-0.4573095 0.5938311 0.6619914
-0.4698151 0.6034987 0.6442539
-0.4819836 0.6127716 0.6262609
-0.493812 0.6216499 0.6080305
-0.5052976 0.6301342 0.5895806
-0.5164382 0.6382255 0.5709289
-0.527232 0.6459254 0.5520931
-0.5376779 0.6532359 0.5330903
-0.5477751 0.6601595 0.5139377
-0.5575233 0.6666988 0.4946518
-0.5669226 0.6728573 0.4752493
-0.5759736 0.6786383 0.4557461
-0.5846772 0.6840459 0.4361581
-0.5930347 0.6890843 0.4165005
-0.601048 0.6937581 0.3967885
-0.608719 0.6980721 0.3770365
-0.6160502 0.7020315 0.3572589
-0.6230443 0.7056417 0.3374694
-0.6297044 0.7089082 0.3176814
-0.6360338 0.711837 0.2979078
-0.6420361 0.7144341 0.2781611
-0.6477152 0.7167056 0.2584534
-0.6530752 0.7186579 0.2387963
-0.6581204 0.7202975 0.2192009
-0.6628554 0.7216311 0.199678
-0.6672848 0.7226654 0.1802377
-0.6714137 0.7234073 0.1608901
-0.675247 0.7238635 0.1416443
-0.67879 0.7240412 0.1225093
-0.6820479 0.7239473 0.1034937
-0.6850264 0.7235888 0.08460535
-0.6877308 0.7229729 0.06585201
-0.690167 0.7221065 0.04724082
-0.6923405 0.7209968 0.02877858
-0.6942572 0.7196508 0.01047164
-0.695923 0.7180754 -0.007674031
-0.6973436 0.7162778 -0.02565286
-0.698525 0.7142647 -0.04345967
-0.6994732 0.712043 -0.06108965
-0.7001941 0.7096196 -0.07853835
-0.7006936 0.7070011 -0.09580168
-0.7009776 0.7041942 -0.1128759
-0.7010521 0.7012054 -0.1297576
-0.7009229 0.6980411 -0.1464438
-0.7005959 0.6947076 -0.1629316
-0.7000769 0.6912113 -0.1792186
-0.6993717 0.6875581 -0.1953026
-0.6984859 0.6837541 -0.2111818
-0.6974253 0.6798051 -0.2268545
-0.6961954 0.6757168 -0.2423195
-0.6948018 0.6714949 -0.2575756
-0.6932498 0.6671447 -0.2726219
-0.6915449 0.6626716 -0.2874579
-0.6896923 0.6580807 -0.3020831
-0.6876974 0.6533772 -0.3164974
-0.6855651 0.6485658 -0.3307008
-0.6833005 0.6436512 -0.3446934
-0.6809086 0.6386382 -0.3584757
-0.6783942 0.633531 -0.3720482
-0.675762 0.628334 -0.3854116
-0.6730168 0.6230513 -0.3985667
-0.6701631 0.6176869 -0.4115147
-0.6672053 0.6122446 -0.4242566
-0.6641478 0.6067281 -0.4367937
-0.6609949 0.6011409 -0.4491274
-0.6577507 0.5954863 -0.4612592
-0.6544194 0.5897677 -0.4731906
-0.6510049 0.583988 -0.4849234
-0.647511 0.5781502 -0.4964593
-0.6439417 0.572257 -0.5078002
-0.6403004 0.5663112 -0.5189479
-0.636591 0.5603152 -0.5299046
-0.6328167 0.5542712 -0.5406722
-0.6289812 0.5481816 -0.5512527
-0.6250876 0.5420484 -0.5616484
-0.6211393 0.5358735 -0.5718615
-0.6171393 0.5296588 -0.581894
-0.6130909 0.5234057 -0.5917483
-0.6089968 0.517116 -0.6014265
-0.6048602 0.510791 -0.6109311
-0.6006837 0.5044319 -0.6202641
-0.5964702 0.4980399 -0.6294279
-0.5922225 0.4916161 -0.6384248
-0.587943 0.4851612 -0.647257
-0.5836344 0.4786762 -0.6559268
-0.5792992 0.4721617 -0.6644365
-0.5749398 0.4656182 -0.6727881
-0.5705587 0.4590462 -0.6809841
-0.5661583 0.4524461 -0.6890264
-0.5617407 0.445818 -0.6969173
-0.5573083 0.4391622 -0.7046588
-0.5528633 0.4324786 -0.712253
-0.5484079 0.4257673 -0.719702
-0.5439443 0.4190281 -0.7270076
-0.5394746 0.4122606 -0.7341719
-0.5350009 0.4054648 -0.7411966
-0.5305253 0.39864 -0.7480836
-0.52605 0.3917859 -0.7548346
-0.5215769 0.3849019 -0.7614513
-0.5171082 0.3779874 -0.7679353
-0.512646 0.3710416 -0.7742882
-0.5081924 0.3640637 -0.7805114
-0.5037494 0.3570531 -0.7866064
-0.4993193 0.3500086 -0.7925744
-0.4949041 0.3429295 -0.7984167
-0.4905061 0.3358146 -0.8041345
-0.4861275 0.3286628 -0.8097288
-0.4817706 0.3214732 -0.8152006
-0.4774377 0.3142444 -0.8205508
-0.4731313 0.3069753 -0.8257802
-0.4688537 0.2996646 -0.8308895
-0.4646077 0.292311 -0.8358792
-0.4603958 0.2849131 -0.8407498
-0.4562207 0.2774697 -0.8455017
-0.4520855 0.2699793 -0.8501352
-0.4479929 0.2624405 -0.8546504
-0.4439463 0.2548519 -0.8590473
-0.4399487 0.247212 -0.8633257
-0.4360038 0.2395194 -0.8674855
-0.432115 0.2317727 -0.8715263
-0.4282863 0.2239703 -0.8754474
-0.4245216 0.216111 -0.8792482
-0.4208251 0.2081933 -0.882928
-0.4172014 0.2002159 -0.8864855
-0.4136551 0.1921776 -0.8899198
-0.4101913 0.184077 -0.8932294
-0.4068153 0.1759133 -0.8964127
-0.4035328 0.1676853 -0.8994681
-0.4003496 0.1593922 -0.9023937
-0.3972721 0.1510335 -0.9051872
-0.3943068 0.1426086 -0.9078463
-0.3914609 0.1341174 -0.9103685
-0.3887416 0.12556 -0.9127511
-0.3861567 0.1169367 -0.9149912
-0.3837141 0.1082486 -0.9170855
-0.3814222 0.09949675 -0.9190307
-0.3792894 0.0906831 -0.9208236
-0.3773245 0.08180998 -0.9224605
-0.3755362 0.0728804 -0.9239378
-0.373933 0.06389802 -0.9252519
-0.3725233 0.05486723 -0.9263995
-0.3713151 0.04579316 -0.927377
-0.3703155 0.03668164 -0.9281815
-0.3695309 0.02753919 -0.9288103
-0.3689666 0.01837296 -0.9292611
-0.3686263 0.009190566 -0.9295322
-0.3685127 2.453768e-09 -0.9296227
-0.3686263 -0.009190561 -0.9295322
-0.3689666 -0.01837295 -0.9292611
-0.3695309 -0.02753919 -0.9288103
-0.3703155 -0.03668163 -0.9281815
-0.3713151 -0.04579315 -0.927377
-0.3725233 -0.05486723 -0.9263995
-0.373933 -0.06389801 -0.9252519
-0.3755362 -0.07288039 -0.9239378
-0.3773245 -0.08180998 -0.9224605
-0.3792894 -0.0906831 -0.9208236
-0.3814222 -0.09949675 -0.9190307
-0.3837141 -0.1082486 -0.9170855
-0.3861567 -0.1169367 -0.9149912
-0.3887416 -0.1255599 -0.9127511
-0.3914609 -0.1341174 -0.9103685
-0.3943068 -0.1426086 -0.9078463
-0.3972721 -0.1510335 -0.9051872
-0.4003496 -0.1593922 -0.9023937
-0.4035328 -0.1676853 -0.8994682
-0.4068153 -0.1759133 -0.8964127
-0.4101913 -0.184077 -0.8932294
-0.4136551 -0.1921776 -0.8899198
-0.4172014 -0.2002159 -0.8864855
-0.4208251 -0.2081933 -0.882928
-0.4245216 -0.216111 -0.8792482
-0.4282863 -0.2239703 -0.8754474
-0.432115 -0.2317727 -0.8715263
-0.4360038 -0.2395194 -0.8674855
-0.4399487 -0.247212 -0.8633257
-0.4439463 -0.2548519 -0.8590473
-0.4479929 -0.2624405 -0.8546504
-0.4520855 -0.2699793 -0.8501352
-0.4562207 -0.2774697 -0.8455017
-0.4603958 -0.2849131 -0.8407498
-0.4646077 -0.292311 -0.8358792
-0.4688537 -0.2996646 -0.8308895
-0.4731313 -0.3069753 -0.8257802
-0.4774377 -0.3142444 -0.8205509
-0.4817706 -0.3214732 -0.8152007
-0.4861275 -0.3286628 -0.8097288
-0.4905061 -0.3358146 -0.8041345
-0.4949041 -0.3429295 -0.7984167
-0.4993193 -0.3500086 -0.7925744
-0.5037494 -0.3570531 -0.7866064
-0.5081924 -0.3640637 -0.7805114
-0.512646 -0.3710416 -0.7742882
-0.5171082 -0.3779874 -0.7679353
-0.5215769 -0.3849019 -0.7614513
-0.52605 -0.3917859 -0.7548346
-0.5305253 -0.39864 -0.7480836
-0.5350009 -0.4054648 -0.7411966
-0.5394746 -0.4122606 -0.7341719
-0.5439443 -0.4190281 -0.7270076
-0.5484079 -0.4257673 -0.719702
-0.5528633 -0.4324786 -0.712253
-0.5573083 -0.4391622 -0.7046588
-0.5617407 -0.445818 -0.6969173