# vtk DataFile Version 2.0
Written badly by Kevin Korner
ASCII
DATASET POLYDATA
POINTS 350 FLOAT
0 0 0
0.00286533 0 0
0.005730402 2.256346e-05 3.100559e-05
0.008594709 6.797725e-05 9.26346e-05
0.01145775 0.0001365162 0.0001844965
0.01431901 0.000228443 0.0003061929
0.01717802 0.0003440087 0.0004573179
0.02003428 0.0004834519 0.0006374582
0.02288731 0.0006469997 0.0008461941
0.02573664 0.0008348672 0.001083099
0.02858181 0.001047258 0.001347741
0.03142235 0.001284363 0.001639681
0.03425781 0.001546364 0.001958477
0.03708775 0.001833428 0.00230368
0.03991172 0.002145712 0.002674837
0.0427293 0.002483364 0.003071491
0.04554007 0.002846518 0.003493182
0.04834361 0.003235297 0.003939445
0.0511395 0.003649814 0.004409812
0.05392736 0.004090173 0.004903814
0.05670679 0.004556465 0.005420976
0.05947741 0.005048771 0.005960825
0.06223884 0.005567162 0.006522883
0.0649907 0.0061117 0.007106672
0.06773266 0.006682436 0.007711713
0.07046434 0.007279412 0.008337525
0.07318541 0.007902659 0.008983626
0.07589553 0.0085522 0.009649536
0.07859438 0.009228049 0.01033477
0.08128164 0.009930211 0.01103886
0.08395699 0.01065868 0.0117613
0.08662014 0.01141345 0.01250163
0.08927079 0.01219449 0.01325937
0.09190864 0.01300178 0.01403404
0.09453343 0.01383528 0.01482516
0.09714489 0.01469494 0.01563225
0.09974274 0.01558072 0.01645485
0.1023267 0.01649255 0.01729248
0.1048966 0.01743037 0.01814467
0.1074522 0.0183941 0.01901097
0.1099932 0.01938367 0.01989089
0.1125194 0.02039898 0.020784
0.1150305 0.02143996 0.02168982
0.1175265 0.02250649 0.0226079
0.120007 0.02359847 0.02353779
0.1224719 0.02471579 0.02447905
0.124921 0.02585835 0.02543123
0.1273541 0.02702601 0.02639389
0.129771 0.02821866 0.02736659
0.1321716 0.02943615 0.0283489
0.1345557 0.03067837 0.02934039
0.1369232 0.03194516 0.03034064
0.1392738 0.03323639 0.03134922
0.1416076 0.0345519 0.03236573
0.1439242 0.03589155 0.03338974
0.1462237 0.03725519 0.03442085
0.1485058 0.03864264 0.03545866
0.1507704 0.04005376 0.03650278
0.1530175 0.04148837 0.03755279
0.155247 0.04294632 0.03860833
0.1574586 0.04442742 0.03966899
0.1596524 0.04593151 0.04073441
0.1618282 0.04745841 0.04180421
0.163986 0.04900794 0.04287801
0.1661257 0.05057992 0.04395545
0.1682471 0.05217417 0.04503617
0.1703503 0.05379051 0.04611982
0.1724351 0.05542875 0.04720603
0.1745015 0.0570887 0.04829447
0.1765494 0.05877018 0.0493848
0.1785788 0.06047299 0.05047666
0.1805895 0.06219695 0.05156974
0.1825817 0.06394186 0.0526637
0.1845552 0.06570752 0.05375822
0.1865099 0.06749375 0.05485297
0.1884459 0.06930035 0.05594766
0.190363 0.07112712 0.05704195
0.1922614 0.07297386 0.05813556
0.1941408 0.07484039 0.05922817
0.1960014 0.0767265 0.06031949
0.1978431 0.078632 0.06140922
0.1996658 0.08055668 0.06249709
0.2014695 0.08250036 0.06358279
0.2032543 0.08446283 0.06466606
0.20502 0.08644389 0.06574662
0.2067668 0.08844335 0.06682418
0.2084945 0.09046101 0.06789849
0.2102032 0.09249667 0.06896928
0.2118928 0.09455014 0.07003629
0.2135634 0.09662122 0.07109925
0.2152149 0.09870971 0.07215792
0.2168474 0.1008154 0.07321205
0.2184608 0.1029381 0.07426139
0.2200551 0.1050777 0.07530568
0.2216304 0.1072339 0.07634471
0.2231866 0.1094065 0.07737822
0.2247237 0.1115953 0.07840598
0.2262417 0.1138002 0.07942776
0.2277407 0.116021 0.08044334
0.2292206 0.1182574 0.08145248
0.2306814 0.1205093 0.08245497
0.2321232 0.1227765 0.08345058
0.233546 0.1250588 0.0844391
0.2349496 0.127356 0.08542031
0.2363343 0.1296679 0.08639401
0.2376999 0.1319943 0.08735997
0.2390464 0.134335 0.088318
0.2403739 0.1366899 0.08926789
0.2416824 0.1390588 0.09020943
0.2429718 0.1414414 0.09114243
0.2442422 0.1438377 0.09206668
0.2454936 0.1462473 0.09298199
0.246726 0.1486702 0.09388816
0.2479393 0.1511061 0.094785
0.2491336 0.1535548 0.09567232
0.2503089 0.1560162 0.09654992
0.2514652 0.1584902 0.09741762
0.2526025 0.1609764 0.09827524
0.2537207 0.1634747 0.09912257
0.2548199 0.165985 0.09995945
0.2559001 0.168507 0.1007857
0.2569612 0.1710406 0.1016011
0.2580033 0.1735856 0.1024055
0.2590264 0.1761418 0.1031988
0.2600304 0.1787091 0.1039806
0.2610154 0.1812872 0.104751
0.2619812 0.1838759 0.1055096
0.2629281 0.1864752 0.1062563
0.2638558 0.1890847 0.106991
0.2647644 0.1917044 0.1077134
0.2656539 0.194334 0.1084234
0.2665243 0.1969733 0.1091209
0.2673755 0.1996222 0.1098056
0.2682075 0.2022805 0.1104774
0.2690204 0.204948 0.1111361
0.2698141 0.2076245 0.1117815
0.2705885 0.2103098 0.1124136
0.2713437 0.2130037 0.113032
0.2720797 0.2157061 0.1136367
0.2727963 0.2184167 0.1142275
0.2734936 0.2211354 0.1148042
0.2741716 0.223862 0.1153667
0.2748301 0.2265962 0.1159148
0.2754693 0.2293379 0.1164483
0.2760891 0.2320869 0.1169672
0.2766893 0.2348429 0.1174711
0.2772701 0.2376059 0.1179601
0.2778313 0.2403755 0.1184338
0.278373 0.2431515 0.1188923
0.278895 0.2459339 0.1193352
0.2793974 0.2487223 0.1197626
0.2798801 0.2515165 0.1201741
0.2803431 0.2543163 0.1205698
0.2807863 0.2571216 0.1209494
0.2812098 0.2599321 0.1213129
0.2816134 0.2627475 0.12166
0.2819971 0.2655677 0.1219906
0.2823609 0.2683924 0.1223047
0.2827048 0.2712215 0.1226021
0.2830287 0.2740546 0.1228827
0.2833325 0.2768915 0.1231463
0.2836163 0.2797321 0.1233929
0.28388 0.282576 0.1236223
0.2841235 0.2854231 0.1238345
0.2843469 0.288273 0.1240294
0.2845501 0.2911257 0.1242068
0.284733 0.2939807 0.1243668
0.2848957 0.2968378 0.1245091
0.2850381 0.2996969 0.1246338
0.2851602 0.3025576 0.1247408
0.285262 0.3054197 0.1248301
0.2853435 0.308283 0.1249015
0.2854046 0.3111472 0.1249552
0.2854453 0.314012 0.1249909
0.2854657 0.3168772 0.1250088
0.2854657 0.3197426 0.1250088
0.2854453 0.3226078 0.1249909
0.2854046 0.3254726 0.1249552
0.2853435 0.3283367 0.1249015
0.285262 0.3312 0.1248301
0.2851602 0.3340622 0.1247408
0.2850381 0.3369229 0.1246338
0.2848957 0.339782 0.1245091
0.284733 0.3426391 0.1243668
0.2845501 0.3454941 0.1242068
0.2843469 0.3483467 0.1240294
0.2841235 0.3511967 0.1238345
0.28388 0.3540437 0.1236223
0.2836163 0.3568877 0.1233929
0.2833325 0.3597282 0.1231463
0.2830287 0.3625652 0.1228827
0.2827048 0.3653983 0.1226021
0.2823609 0.3682273 0.1223047
0.2819971 0.3710521 0.1219906
0.2816134 0.3738723 0.12166
0.2812098 0.3766877 0.1213129
0.2807863 0.3794982 0.1209494
0.2803431 0.3823034 0.1205698
0.2798801 0.3851033 0.1201741
0.2793974 0.3878975 0.1197626
0.278895 0.3906859 0.1193352
0.278373 0.3934682 0.1188923
0.2778313 0.3962443 0.1184338
0.2772701 0.3990139 0.1179601
0.2766893 0.4017768 0.1174711
0.2760891 0.4045329 0.1169672
0.2754693 0.4072819 0.1164483
0.2748301 0.4100236 0.1159148
0.2741716 0.4127578 0.1153667
0.2734936 0.4154843 0.1148042
0.2727963 0.418203 0.1142275
0.2720797 0.4209137 0.1136367
0.2713437 0.423616 0.113032
0.2705885 0.42631 0.1124136
0.2698141 0.4289953 0.1117815
0.2690204 0.4316718 0.1111361
0.2682075 0.4343393 0.1104774
0.2673755 0.4369975 0.1098056
0.2665243 0.4396465 0.1091209
0.2656539 0.4422858 0.1084234
0.2647644 0.4449154 0.1077134
0.2638558 0.4475351 0.106991
0.2629281 0.4501446 0.1062563
0.2619812 0.4527438 0.1055096
0.2610154 0.4553326 0.104751
0.2600304 0.4579107 0.1039806
0.2590264 0.4604779 0.1031988
0.2580033 0.4630341 0.1024055
0.2569612 0.4655792 0.1016011
0.2559001 0.4681128 0.1007857
0.2548199 0.4706348 0.09995945
0.2537207 0.4731451 0.09912257
0.2526025 0.4756434 0.09827524
0.2514652 0.4781296 0.09741762
0.2503089 0.4806035 0.09654992
0.2491336 0.483065 0.09567232
0.2479393 0.4855137 0.094785
0.246726 0.4879496 0.09388816
0.2454936 0.4903725 0.09298199
0.2442422 0.4927821 0.09206668
0.2429718 0.4951783 0.09114243
0.2416824 0.497561 0.09020943
0.2403739 0.4999298 0.08926789
0.2390464 0.5022847 0.088318
0.2376999 0.5046255 0.08735997
0.2363343 0.5069519 0.08639401
0.2349496 0.5092638 0.08542031
0.233546 0.511561 0.0844391
0.2321232 0.5138433 0.08345058
0.2306814 0.5161104 0.08245497
0.2292206 0.5183623 0.08145248
0.2277407 0.5205988 0.08044334
0.2262417 0.5228195 0.07942776
0.2247237 0.5250244 0.07840598
0.2231866 0.5272133 0.07737822
0.2216304 0.5293859 0.07634471
0.2200551 0.5315421 0.07530569
0.2184608 0.5336816 0.07426139
0.2168474 0.5358044 0.07321205
0.2152149 0.5379101 0.07215792
0.2135634 0.5399986 0.07109925
0.2118928 0.5420696 0.07003629
0.2102032 0.5441231 0.06896928
0.2084945 0.5461588 0.06789849
0.2067668 0.5481764 0.06682418
0.20502 0.5501759 0.06574662
0.2032543 0.5521569 0.06466606
0.2014695 0.5541194 0.06358279
0.1996658 0.5560631 0.06249709
0.1978431 0.5579878 0.06140922
0.1960014 0.5598933 0.06031949
0.1941408 0.5617794 0.05922817
0.1922614 0.5636459 0.05813556
0.190363 0.5654927 0.05704195
0.1884459 0.5673194 0.05594766
0.1865099 0.569126 0.05485297
0.1845552 0.5709123 0.05375822
0.1825817 0.5726779 0.0526637
0.1805895 0.5744228 0.05156974
0.1785788 0.5761468 0.05047666
0.1765494 0.5778496 0.0493848
0.1745015 0.5795311 0.04829447
0.1724351 0.581191 0.04720603
0.1703503 0.5828293 0.04611982
0.1682471 0.5844456 0.04503617
0.1661257 0.5860399 0.04395545
0.163986 0.5876118 0.04287801
0.1618282 0.5891614 0.04180421
0.1596524 0.5906883 0.04073441
0.1574586 0.5921924 0.03966899
0.155247 0.5936735 0.03860833
0.1530175 0.5951314 0.03755279
0.1507704 0.596566 0.03650278
0.1485058 0.5979771 0.03545866
0.1462237 0.5993646 0.03442085
0.1439242 0.6007282 0.03338974
0.1416076 0.6020679 0.03236573
0.1392738 0.6033834 0.03134922
0.1369232 0.6046746 0.03034064
0.1345557 0.6059414 0.02934039
0.1321716 0.6071836 0.0283489
0.129771 0.6084011 0.02736659
0.1273541 0.6095938 0.02639389
0.124921 0.6107614 0.02543123
0.1224719 0.611904 0.02447905
0.120007 0.6130213 0.02353779
0.1175265 0.6141133 0.0226079
0.1150305 0.6151798 0.02168982
0.1125194 0.6162208 0.020784
0.1099932 0.6172361 0.01989089
0.1074522 0.6182257 0.01901097
0.1048966 0.6191894 0.01814467
0.1023267 0.6201272 0.01729248
0.09974274 0.6210391 0.01645485
0.09714489 0.6219248 0.01563225
0.09453343 0.6227845 0.01482516
0.09190864 0.623618 0.01403404
0.08927079 0.6244253 0.01325937
0.08662014 0.6252063 0.01250163
0.08395699 0.6259611 0.0117613
0.08128164 0.6266896 0.01103886
0.07859438 0.6273917 0.01033477
0.07589553 0.6280676 0.009649536
0.07318541 0.6287171 0.008983626
0.07046434 0.6293404 0.008337525
0.06773266 0.6299373 0.007711713
0.0649907 0.6305081 0.007106672
0.06223884 0.6310526 0.006522883
0.05947741 0.631571 0.005960825
0.05670679 0.6320633 0.005420976
0.05392736 0.6325296 0.004903814
0.0511395 0.63297 0.004409812
0.04834361 0.6333845 0.003939445
0.04554007 0.6337733 0.003493182
0.0427293 0.6341364 0.003071491
0.03991172 0.6344741 0.002674837
0.03708775 0.6347863 0.00230368
0.03425781 0.6350734 0.001958477
0.03142235 0.6353354 0.001639681
0.02858181 0.6355725 0.001347741
0.02573664 0.6357849 0.001083099
0.02288731 0.6359728 0.0008461941
0.02003428 0.6361363 0.0006374582
0.01717802 0.6362758 0.0004573179
0.01431901 0.6363913 0.000306193
0.01145775 0.6364833 0.0001844965
0.008594709 0.6365518 9.26346e-05
0.005730402 0.6365972 3.100559e-05
0.00286533 0.6366198 0
0 0.6366198 0

LINES 349 1047
2 0 1
2 1 2
2 2 3
2 3 4
2 4 5
2 5 6
2 6 7
2 7 8
2 8 9
2 9 10
2 10 11
2 11 12
2 12 13
2 13 14
2 14 15
2 15 16
2 16 17
2 17 18
2 18 19
2 19 20
2 20 21
2 21 22
2 22 23
2 23 24
2 24 25
2 25 26
2 26 27
2 27 28
2 28 29
2 29 30
2 30 31
2 31 32
2 32 33
2 33 34
2 34 35
2 35 36
2 36 37
2 37 38
2 38 39
2 39 40
2 40 41
2 41 42
2 42 43
2 43 44
2 44 45
2 45 46
2 46 47
2 47 48
2 48 49
2 49 50
2 50 51
2 51 52
2 52 53
2 53 54
2 54 55
2 55 56
2 56 57
2 57 58
2 58 59
2 59 60
2 60 61
2 61 62
2 62 63
2 63 64
2 64 65
2 65 66
2 66 67
2 67 68
2 68 69
2 69 70
2 70 71
2 71 72
2 72 73
2 73 74
2 74 75
2 75 76
2 76 77
2 77 78
2 78 79
2 79 80
2 80 81
2 81 82
2 82 83
2 83 84
2 84 85
2 85 86
2 86 87
2 87 88
2 88 89
2 89 90
2 90 91
2 91 92
2 92 93
2 93 94
2 94 95
2 95 96
2 96 97
2 97 98
2 98 99
2 99 100
2 100 101
2 101 102
2 102 103
2 103 104
2 104 105
2 105 106
2 106 107
2 107 108
2 108 109
2 109 110
2 110 111
2 111 112
2 112 113
2 113 114
2 114 115
2 115 116
2 116 117
2 117 118
2 118 119
2 119 120
2 120 121
2 121 122
2 122 123
2 123 124
2 124 125
2 125 126
2 126 127
2 127 128
2 128 129
2 129 130
2 130 131
2 131 132
2 132 133
2 133 134
2 134 135
2 135 136
2 136 137
2 137 138
2 138 139
2 139 140
2 140 141
2 141 142
2 142 143
2 143 144
2 144 145
2 145 146
2 146 147
2 147 148
2 148 149
2 149 150
2 150 151
2 151 152
2 152 153
2 153 154
2 154 155
2 155 156
2 156 157
2 157 158
2 158 159
2 159 160
2 160 161
2 161 162
2 162 163
2 163 164
2 164 165
2 165 166
2 166 167
2 167 168
2 168 169
2 169 170
2 170 171
2 171 172
2 172 173
2 173 174
2 174 175
2 175 176
2 176 177
2 177 178
2 178 179
2 179 180
2 180 181
2 181 182
2 182 183
2 183 184
2 184 185
2 185 186
2 186 187
2 187 188
2 188 189
2 189 190
2 190 191
2 191 192
2 192 193
2 193 194
2 194 195
2 195 196
2 196 197
2 197 198
2 198 199
2 199 200
2 200 201
2 201 202
2 202 203
2 203 204
2 204 205
2 205 206
2 206 207
2 207 208
2 208 209
2 209 210
2 210 211
2 211 212
2 212 213
2 213 214
2 214 215
2 215 216
2 216 217
2 217 218
2 218 219
2 219 220
2 220 221
2 221 222
2 222 223
2 223 224
2 224 225
2 225 226
2 226 227
2 227 228
2 228 229
2 229 230
2 230 231
2 231 232
2 232 233
2 233 234
2 234 235
2 235 236
2 236 237
2 237 238
2 238 239
2 239 240
2 240 241
2 241 242
2 242 243
2 243 244
2 244 245
2 245 246
2 246 247
2 247 248
2 248 249
2 249 250
2 250 251
2 251 252
2 252 253
2 253 254
2 254 255
2 255 256
2 256 257
2 257 258
2 258 259
2 259 260
2 260 261
2 261 262
2 262 263
2 263 264
2 264 265
2 265 266
2 266 267
2 267 268
2 268 269
2 269 270
2 270 271
2 271 272
2 272 273
2 273 274
2 274 275
2 275 276
2 276 277
2 277 278
2 278 279
2 279 280
2 280 281
2 281 282
2 282 283
2 283 284
2 284 285
2 285 286
2 286 287
2 287 288
2 288 289
2 289 290
2 290 291
2 291 292
2 292 293
2 293 294
2 294 295
2 295 296
2 296 297
2 297 298
2 298 299
2 299 300
2 300 301
2 301 302
2 302 303
2 303 304
2 304 305
2 305 306
2 306 307
2 307 308
2 308 309
2 309 310
2 310 311
2 311 312
2 312 313
2 313 314
2 314 315
2 315 316
2 316 317
2 317 318
2 318 319
2 319 320
2 320 321
2 321 322
2 322 323
2 323 324
2 324 325
2 325 326
2 326 327
2 327 328
2 328 329
2 329 330
2 330 331
2 331 332
2 332 333
2 333 334
2 334 335
2 335 336
2 336 337
2 337 338
2 338 339
2 339 340
2 340 341
2 341 342
2 342 343
2 343 344
2 344 345
2 345 346
2 346 347
2 347 348
2 348 349


POINT_DATA 350
SCALARS a FLOAT 1
LOOKUP_TABLE default
0.0005894628
0.0005894628
0.0005894628
0.0005894628
0.0005894628
0.0005894628
0.0005894628
0.0005894628
0.0005894628
0.0005894628
0.0005894628
0.0005894628
0.0005894628
0.0005894628
0.0005894628
0.0005894628
0.0005894628
0.0005894628
0.0005894628
0.0005894628
0.0005894628
0.0005894628
0.0005894628
0.0005894628
0.0005894628
0.0005894628
0.0005894628
0.0005894628
0.0005894628
0.0005894628
0.0005894628
0.0005894628
0.0005894628
0.0005894628
0.0005894628
0.0005894628
0.0005894628
0.0005894628
0.0005894628
0.0005894628
0.0005894628
0.0005894628
0.0005894628
0.0005894628
0.0005894628
0.0005894628
0.0005894628
0.0005894628
0.0005894628
0.0005894628
0.0005894628
0.0005894628
0.0005894628
0.0005894628
0.0005894628
0.0005894628
0.0005894628
0.0005894628
0.0005894628
0.0005894628
0.0005894628
0.0005894628
0.0005894628
0.0005894628
0.0005894628
0.0005894628
0.0005894628
0.0005894628
0.0005894628
0.0005894628
0.0005894628
0.0005894628
0.0005894628
0.0005894628
0.0005894628
0.0005894628
0.0005894628
0.0005894628
0.0005894628
0.0005894628
0.0005894628
0.0005894628
0.0005894628
0.0005894628
0.0005894628
0.0005894628
0.0005894628
0.0005894628
0.0005894628
0.0005894628
0.0005894628
0.0005894628
0.0005894628
0.0005894628
0.0005894628
0.0005894628
0.0005894628
0.0005894628
0.0005894628
0.0005894628
0.0005894628
0.0005894628
0.0005894628
0.0005894628
0.0005894628
0.0005894628
0.0005894628
0.0005894628
0.0005894628
0.0005894628
0.0005894628
0.0005894628
0.0005894628
0.0005894628
0.0005894628
0.0005894628
0.0005894628
0.0005894628
0.0005894628
0.0005894628
0.0005894628
0.0005894628
0.0005894628
0.0005894628
0.0005894628
0.0005894628
0.0005894628
0.0005894628
0.0005894628
0.0005894628
0.0005894628
0.0005894628
0.0005894628
0.0005894628
0.0005894628
0.0005894628
0.0005894628
0.0005894628
0.0005894628
0.0005894628
0.0005894628
0.0005894628
0.0005894628
0.0005894628
0.0005894628
0.0005894628
0.0005894628
0.0005894628
0.0005894628
0.0005894628
0.0005894628
0.0005894628
0.0005894628
0.0005894628
0.0005894628
0.0005894628
0.0005894628
0.0005894628
0.0005894628
0.0005894628
0.0005894628
0.0005894628
0.0005894628
0.0005894628
0.0005894628
0.0005894628
0.0005894628
0.0005894628
0.0005894628
0.0005894628
0.0005894628
0.0005894628
0.0005894628
0.0005894628
0.0005894628
0.0005894628
0.0005894628
0.0005894628
0.0005894628
0.0005894628
0.0005894628
0.0005894628
0.0005894628
0.0005894628
0.0005894628
0.0005894628
0.0005894628
0.0005894628
0.0005894628
0.0005894628
0.0005894628
0.0005894628
0.0005894628
0.0005894628
0.0005894628
0.0005894628
0.0005894628
0.0005894628
0.0005894628
0.0005894628
0.0005894628
0.0005894628
0.0005894628
0.0005894628
0.0005894628
0.0005894628
0.0005894628
0.0005894628
0.0005894628
0.0005894628
0.0005894628
0.0005894628
0.0005894628
0.0005894628
0.0005894628
0.0005894628
0.0005894628
0.0005894628
0.0005894628
0.0005894628
0.0005894628
0.0005894628
0.0005894628
0.0005894628
0.0005894628
0.0005894628
0.0005894628
0.0005894628
0.0005894628
0.0005894628
0.0005894628
0.0005894628
0.0005894628
0.0005894628
0.0005894628
0.0005894628
0.0005894628
0.0005894628
0.0005894628
0.0005894628
0.0005894628
0.0005894628
0.0005894628
0.0005894628
0.0005894628
0.0005894628
0.0005894628
0.0005894628
0.0005894628
0.0005894628
0.0005894628
0.0005894628
0.0005894628
0.0005894628
0.0005894628
0.0005894628
0.0005894628
0.0005894628
0.0005894628
0.0005894628
0.0005894628
0.0005894628
0.0005894628
0.0005894628
0.0005894628
0.0005894628
0.0005894628
0.0005894628
0.0005894628
0.0005894628
0.0005894628
0.0005894628
0.0005894628
0.0005894628
0.0005894628
0.0005894628
0.0005894628
0.0005894628
0.0005894628
0.0005894628
0.0005894628
0.0005894628
0.0005894628
0.0005894628
0.0005894628
0.0005894628
0.0005894628
0.0005894628
0.0005894628
0.0005894628
0.0005894628
0.0005894628
0.0005894628
0.0005894628
0.0005894628
0.0005894628
0.0005894628
0.0005894628
0.0005894628
0.0005894628
0.0005894628
0.0005894628
0.0005894628
0.0005894628
0.0005894628
0.0005894628
0.0005894628
0.0005894628
0.0005894628
0.0005894628
0.0005894628
0.0005894628
0.0005894628
0.0005894628
0.0005894628
0.0005894628
0.0005894628
0.0005894628
0.0005894628
0.0005894628
0.0005894628
0.0005894628
0.0005894628
0.0005894628
0.0005894628
0.0005894628
0.0005894628
0.0005894628
0.0005894628
0.0005894628
0.0005894628
0.0005894628
0.0005894628
0.0005894628
0.0005894628
0.0005894628
0.0005894628
0.0005894628
0.0005894628
0.0005894628
0.0005894628
0.0005894628
0.0005894628
0.0005894628
0.0005894628
0.0005894628
0.0005894628
0.0005894628
0.0005894628
0.0005894628


SCALARS b FLOAT 1
LOOKUP_TABLE default
0.04420971
0.04420971
0.04420971
0.04420971
0.04420971
0.04420971
0.04420971
0.04420971
0.04420971
0.04420971
0.04420971
0.04420971
0.04420971
0.04420971
0.04420971
0.04420971
0.04420971
0.04420971
0.04420971
0.04420971
0.04420971
0.04420971
0.04420971
0.04420971
0.04420971
0.04420971
0.04420971
0.04420971
0.04420971
0.04420971
0.04420971
0.04420971
0.04420971
0.04420971
0.04420971
0.04420971
0.04420971
0.04420971
0.04420971
0.04420971
0.04420971
0.04420971
0.04420971
0.04420971
0.04420971
0.04420971
0.04420971
0.04420971
0.04420971
0.04420971
0.04420971
0.04420971
0.04420971
0.04420971
0.04420971
0.04420971
0.04420971
0.04420971
0.04420971
0.04420971
0.04420971
0.04420971
0.04420971
0.04420971
0.04420971
0.04420971
0.04420971
0.04420971
0.04420971
0.04420971
0.04420971
0.04420971
0.04420971
0.04420971
0.04420971
0.04420971
0.04420971
0.04420971
0.04420971
0.04420971
0.04420971
0.04420971
0.04420971
0.04420971
0.04420971
0.04420971
0.04420971
0.04420971
0.04420971
0.04420971
0.04420971
0.04420971
0.04420971
0.04420971
0.04420971
0.04420971
0.04420971
0.04420971
0.04420971
0.04420971
0.04420971
0.04420971
0.04420971
0.04420971
0.04420971
0.04420971
0.04420971
0.04420971
0.04420971
0.04420971
0.04420971
0.04420971
0.04420971
0.04420971
0.04420971
0.04420971
0.04420971
0.04420971
0.04420971
0.04420971
0.04420971
0.04420971
0.04420971
0.04420971
0.04420971
0.04420971
0.04420971
0.04420971
0.04420971
0.04420971
0.04420971
0.04420971
0.04420971
0.04420971
0.04420971
0.04420971
0.04420971
0.04420971
0.04420971
0.04420971
0.04420971
0.04420971
0.04420971
0.04420971
0.04420971
0.04420971
0.04420971
0.04420971
0.04420971
0.04420971
0.04420971
0.04420971
0.04420971
0.04420971
0.04420971
0.04420971
0.04420971
0.04420971
0.04420971
0.04420971
0.04420971
0.04420971
0.04420971
0.04420971
0.04420971
0.04420971
0.04420971
0.04420971
0.04420971
0.04420971
0.04420971
0.04420971
0.04420971
0.04420971
0.04420971
0.04420971
0.04420971
0.04420971
0.04420971
0.04420971
0.04420971
0.04420971
0.04420971
0.04420971
0.04420971
0.04420971
0.04420971
0.04420971
0.04420971
0.04420971
0.04420971
0.04420971
0.04420971
0.04420971
0.04420971
0.04420971
0.04420971
0.04420971
0.04420971
0.04420971
0.04420971
0.04420971
0.04420971
0.04420971
0.04420971
0.04420971
0.04420971
0.04420971
0.04420971
0.04420971
0.04420971
0.04420971
0.04420971
0.04420971
0.04420971
0.04420971
0.04420971
0.04420971
0.04420971
0.04420971
0.04420971
0.04420971
0.04420971
0.04420971
0.04420971
0.04420971
0.04420971
0.04420971
0.04420971
0.04420971
0.04420971
0.04420971
0.04420971
0.04420971
0.04420971
0.04420971
0.04420971
0.04420971
0.04420971
0.04420971
0.04420971
0.04420971
0.04420971
0.04420971
0.04420971
0.04420971
0.04420971
0.04420971
0.04420971
0.04420971
0.04420971
0.04420971
0.04420971
0.04420971
0.04420971
0.04420971
0.04420971
0.04420971
0.04420971
0.04420971
0.04420971
0.04420971
0.04420971
0.04420971
0.04420971
0.04420971
0.04420971
0.04420971
0.04420971
0.04420971
0.04420971
0.04420971
0.04420971
0.04420971
0.04420971
0.04420971
0.04420971
0.04420971
0.04420971
0.04420971
0.04420971
0.04420971
0.04420971
0.04420971
0.04420971
0.04420971
0.04420971
0.04420971
0.04420971
0.04420971
0.04420971
0.04420971
0.04420971
0.04420971
0.04420971
0.04420971
0.04420971
0.04420971
0.04420971
0.04420971
0.04420971
0.04420971
0.04420971
0.04420971
0.04420971
0.04420971
0.04420971
0.04420971
0.04420971
0.04420971
0.04420971
0.04420971
0.04420971
0.04420971
0.04420971
0.04420971
0.04420971
0.04420971
0.04420971
0.04420971
0.04420971
0.04420971
0.04420971
0.04420971
0.04420971
0.04420971
0.04420971
0.04420971
0.04420971
0.04420971
0.04420971
0.04420971
0.04420971
0.04420971
0.04420971
0.04420971
0.04420971
0.04420971
0.04420971
0.04420971
0.04420971
0.04420971
0.04420971
0.04420971
0.04420971
0.04420971
0.04420971
0.04420971
0.04420971
0.04420971


VECTORS d1 FLOAT
0 0.5834562 0.8121446
-0.01338271 0.5930834 0.8050298
-0.02671555 0.6024882 0.7976806
-0.03999371 0.611669 0.7901022
-0.0532125 0.6206245 0.7823002
-0.06636733 0.6293534 0.7742801
-0.07945375 0.6378547 0.7660473
-0.09246741 0.6461274 0.7576075
-0.1054041 0.6541708 0.7489663
-0.1182597 0.6619843 0.7401293
-0.1310302 0.6695674 0.7311023
-0.1437117 0.6769199 0.7218908
-0.1563007 0.6840415 0.7125007
-0.1687933 0.6909323 0.7029377
-0.1811862 0.6975923 0.6932074
-0.193476 0.7040219 0.6833156
-0.2056595 0.7102213 0.673268
-0.2177335 0.7161912 0.6630703
-0.2296952 0.7219322 0.6527282
-0.2415416 0.7274449 0.6422473
-0.25327 0.7327304 0.6316332
-0.264878 0.7377895 0.6208916
-0.2763629 0.7426234 0.610028
-0.2877225 0.7472332 0.5990479
-0.2989545 0.7516203 0.5879567
-0.3100569 0.7557861 0.57676
-0.3210276 0.759732 0.5654631
-0.3318649 0.7634597 0.5540713
-0.342567 0.7669708 0.5425898
-0.3531323 0.770267 0.5310238
-0.3635594 0.7733502 0.5193786
-0.3738467 0.7762222 0.5076591
-0.3839931 0.7788851 0.4958703
-0.3939973 0.7813408 0.4840171
-0.4038585 0.7835916 0.4721045
-0.4135755 0.7856394 0.4601371
-0.4231476 0.7874865 0.4481196
-0.432574 0.7891352 0.4360567
-0.4418541 0.7905877 0.4239529
-0.4509873 0.7918464 0.4118126
-0.4599733 0.7929138 0.3996402
-0.4688116 0.7937921 0.38744
-0.477502 0.7944839 0.3752161
-0.4860444 0.7949916 0.3629726
-0.4944386 0.7953178 0.3507136
-0.5026847 0.7954649 0.338443
-0.5107827 0.7954356 0.3261645
-0.5187327 0.7952323 0.313882
-0.5265351 0.7948577 0.3015991
-0.5341902 0.7943143 0.2893194
-0.5416982 0.7936047 0.2770463
-0.5490598 0.7927315 0.2647832
-0.5562753 0.7916974 0.2525334
-0.5633453 0.7905048 0.2403001
-0.5702706 0.7891565 0.2280864
-0.5770518 0.787655 0.2158954
-0.5836897 0.7860028 0.20373
-0.590185 0.7842026 0.1915931
-0.5965387 0.7822569 0.1794873
-0.6027516 0.7801683 0.1674155
-0.6088248 0.7779392 0.1553801
-0.6147592 0.7755722 0.1433838
-0.6205558 0.7730698 0.131429
-0.6262159 0.7704344 0.1195179
-0.6317405 0.7676684 0.107653
-0.6371307 0.7647744 0.09583633
-0.6423879 0.7617546 0.08407008
-0.6475131 0.7586114 0.07235629
-0.6525078 0.7553472 0.06069694
-0.6573731 0.7519643 0.04909391
-0.6621105 0.7484649 0.03754906
-0.6667213 0.7448513 0.02606413
-0.6712067 0.7411256 0.01464083
-0.6755684 0.7372901 0.003280773
-0.6798075 0.7333468 -0.008014462
-0.6839257 0.7292978 -0.01924338
-0.6879244 0.7251452 -0.03040453
-0.691805 0.7208911 -0.04149654
-0.6955689 0.7165373 -0.05251808
-0.6992178 0.7120858 -0.06346788
-0.7027532 0.7075386 -0.07434472
-0.7061764 0.7028974 -0.08514743
-0.7094892 0.6981641 -0.09587491
-0.712693 0.6933404 -0.1065261
-0.7157893 0.6884281 -0.1170999
-0.7187798 0.6834289 -0.1275955
-0.721666 0.6783443 -0.1380118
-0.7244494 0.6731761 -0.1483479
-0.7271316 0.6679257 -0.1586031
-0.7297142 0.6625947 -0.1687765
-0.7321987 0.6571846 -0.1788673
-0.7345868 0.6516967 -0.1888748
-0.73688 0.6461325 -0.1987982
-0.7390798 0.6404933 -0.2086369
-0.7411879 0.6347805 -0.2183902
-0.7432058 0.6289952 -0.2280574
-0.7451351 0.6231387 -0.237638
-0.7469773 0.6172122 -0.2471314
-0.7487341 0.6112169 -0.256537
-0.7504069 0.6051538 -0.2658542
-0.7519973 0.5990239 -0.2750826
-0.7535069 0.5928283 -0.2842216
-0.7549372 0.5865681 -0.2932707
-0.7562898 0.580244 -0.3022294
-0.7575663 0.573857 -0.3110972
-0.758768 0.5674081 -0.3198737
-0.7598967 0.5608979 -0.3285583
-0.7609537 0.5543273 -0.3371507
-0.7619407 0.5476971 -0.3456504
-0.7628592 0.541008 -0.3540568
-0.7637106 0.5342606 -0.3623696
-0.7644965 0.5274556 -0.3705883
-0.7652184 0.5205936 -0.3787123
-0.7658778 0.5136753 -0.3867413
-0.7664763 0.5067011 -0.3946747
-0.7670152 0.4996716 -0.402512
-0.7674962 0.4925873 -0.4102528
-0.7679206 0.4854487 -0.4178965
-0.7682901 0.4782561 -0.4254426
-0.7686061 0.4710101 -0.4328905
-0.7688701 0.4637109 -0.4402396
-0.7690837 0.456359 -0.4474894
-0.7692483 0.4489547 -0.4546392
-0.7693654 0.4414982 -0.4616885
-0.7694365 0.43399 -0.4686364
-0.7694633 0.4264303 -0.4754824
-0.7694471 0.4188192 -0.4822256
-0.7693896 0.4111572 -0.4888654
-0.7692922 0.4034444 -0.4954009
-0.7691566 0.3956809 -0.5018314
-0.7689842 0.3878671 -0.5081559
-0.7687767 0.380003 -0.5143735
-0.7685356 0.372089 -0.5204832
-0.7682626 0.3641251 -0.5264842
-0.7679591 0.3561115 -0.5323752
-0.767627 0.3480484 -0.5381553
-0.7672677 0.3399359 -0.5438233
-0.7668831 0.3317742 -0.549378
-0.7664747 0.3235636 -0.5548182
-0.7660442 0.3153041 -0.5601424
-0.7655935 0.306996 -0.5653495
-0.7651242 0.2986395 -0.5704379
-0.7646381 0.2902349 -0.5754062
-0.7641371 0.2817822 -0.5802528
-0.7636229 0.2732819 -0.5849761
-0.7630974 0.2647343 -0.5895745
-0.7625625 0.2561397 -0.5940462
-0.7620201 0.2474984 -0.5983894
-0.7614722 0.2388109 -0.6026022
-0.7609207 0.2300777 -0.6066828
-0.7603675 0.2212994 -0.6106291
-0.7598147 0.2124764 -0.614439
-0.7592644 0.2036095 -0.6181106
-0.7587186 0.1946994 -0.6216416
-0.7581794 0.1857469 -0.6250297
-0.7576487 0.1767529 -0.6282729
-0.7571289 0.1677185 -0.6313687
-0.7566218 0.1586446 -0.6343148
-0.7561297 0.1495326 -0.637109
-0.7556545 0.1403838 -0.6397489
-0.7551984 0.1311995 -0.6422321
-0.7547633 0.1219814 -0.6445564
-0.7543512 0.1127311 -0.6467194
-0.753964 0.1034504 -0.648719
-0.7536035 0.09414127 -0.650553
-0.7532715 0.08480579 -0.6522193
-0.7529697 0.07544616 -0.653716
-0.7526995 0.06606468 -0.6550412
-0.7524623 0.05666381 -0.6561933
-0.7522594 0.04724609 -0.6571709
-0.7520919 0.03781416 -0.6579725
-0.7519607 0.02837075 -0.6585972
-0.7518664 0.01891868 -0.659044
-0.7518096 0.0094608 -0.6593124
-0.7517907 2.749028e-09 -0.6594019
-0.7518096 -0.009460795 -0.6593124
-0.7518664 -0.01891868 -0.659044
-0.7519607 -0.02837075 -0.6585972
-0.7520919 -0.03781415 -0.6579725
-0.7522594 -0.04724608 -0.6571709
-0.7524623 -0.0566638 -0.6561933
-0.7526995 -0.06606468 -0.6550412
-0.7529697 -0.07544615 -0.653716
-0.7532715 -0.08480579 -0.6522193
-0.7536035 -0.09414126 -0.650553
-0.753964 -0.1034504 -0.648719
-0.7543512 -0.1127311 -0.6467194
-0.7547633 -0.1219814 -0.6445564
-0.7551984 -0.1311995 -0.6422321
-0.7556545 -0.1403838 -0.6397489
-0.7561297 -0.1495326 -0.637109
-0.7566218 -0.1586446 -0.6343148
-0.7571289 -0.1677185 -0.6313687
-0.7576487 -0.1767529 -0.6282729
-0.7581794 -0.1857469 -0.6250297
-0.7587186 -0.1946993 -0.6216416
-0.7592644 -0.2036095 -0.6181106
-0.7598148 -0.2124764 -0.614439
-0.7603675 -0.2212993 -0.6106291
-0.7609207 -0.2300777 -0.6066828
-0.7614722 -0.2388109 -0.6026022
-0.7620201 -0.2474984 -0.5983894
-0.7625625 -0.2561397 -0.5940462
-0.7630974 -0.2647343 -0.5895745
-0.7636229 -0.2732819 -0.5849761
-0.7641371 -0.2817822 -0.5802528
-0.7646381 -0.2902348 -0.5754062
-0.7651242 -0.2986395 -0.5704379
-0.7655935 -0.306996 -0.5653495
-0.7660442 -0.3153041 -0.5601424
-0.7664747 -0.3235636 -0.5548182
-0.7668831 -0.3317742 -0.549378
-0.7672677 -0.3399359 -0.5438233
-0.767627 -0.3480483 -0.5381553
-0.7679591 -0.3561115 -0.5323752
-0.7682626 -0.3641251 -0.5264842
-0.7685356 -0.372089 -0.5204832
-0.7687767 -0.380003 -0.5143735
-0.7689842 -0.3878671 -0.5081559
-0.7691566 -0.3956809 -0.5018314
-0.7692922 -0.4034444 -0.4954009
-0.7693896 -0.4111572 -0.4888654
-0.7694471 -0.4188192 -0.4822256
-0.7694633 -0.4264303 -0.4754824
-0.7694365 -0.43399 -0.4686364
-0.7693654 -0.4414982 -0.4616884
-0.7692483 -0.4489547 -0.4546392
-0.7690837 -0.456359 -0.4474894