# vtk DataFile Version 2.0
Written badly by Kevin Korner
ASCII
DATASET POLYDATA
POINTS 350 FLOAT
0 0 0
0.00286533 0 0
0.005730528 2.598321e-05 8.716347e-06
0.008595334 7.795967e-05 2.603358e-05
0.01145949 0.0001559365 5.183589e-05
0.01432272 0.000259918 8.600713e-05
0.01718479 0.0003899056 0.0001284308
0.02004542 0.0005458979 0.0001789902
0.02290437 0.0007278908 0.0002375682
0.02576136 0.0009358771 0.0003040476
0.02861616 0.001169847 0.0003783108
0.0314685 0.001429788 0.00046024
0.03431812 0.001715686 0.0005497173
0.03716478 0.002027521 0.0006466245
0.04000823 0.002365273 0.0007508432
0.0428482 0.00272892 0.0008622551
0.04568446 0.003118434 0.0009807414
0.04851675 0.003533788 0.001106183
0.05134482 0.00397495 0.001238462
0.05416843 0.004441885 0.001377459
0.05698733 0.004934559 0.001523055
0.05980127 0.005452931 0.001675131
0.06261002 0.00599696 0.001833568
0.06541332 0.006566602 0.001998247
0.06821094 0.007161811 0.002169048
0.07100263 0.007782537 0.002345854
0.07378816 0.008428728 0.002528543
0.07656729 0.009100332 0.002716999
0.07933977 0.009797291 0.002911102
0.08210539 0.01051955 0.003110732
0.08486389 0.01126704 0.003315771
0.08761504 0.0120397 0.003526102
0.09035862 0.01283747 0.003741604
0.0930944 0.01366028 0.00396216
0.09582213 0.01450805 0.004187651
0.09854161 0.01538072 0.00441796
0.1012526 0.01627821 0.004652968
0.1039548 0.01720044 0.004892558
0.1066482 0.01814733 0.005136613
0.1093323 0.0191188 0.005385015
0.1120071 0.02011477 0.005637647
0.1146722 0.02113515 0.005894392
0.1173275 0.02217986 0.006155134
0.1199728 0.0232488 0.006419757
0.1226078 0.02434187 0.006688145
0.1252323 0.02545899 0.006960182
0.1278462 0.02660006 0.007235752
0.1304491 0.02776499 0.007514742
0.1330409 0.02895366 0.007797036
0.1356214 0.03016597 0.008082519
0.1381903 0.03140183 0.008371079
0.1407476 0.03266113 0.008662601
0.1432928 0.03394375 0.008956972
0.1458259 0.03524959 0.009254079
0.1483467 0.03657853 0.009553811
0.1508549 0.03793046 0.009856055
0.1533503 0.03930527 0.0101607
0.1558328 0.04070283 0.01046763
0.1583021 0.04212302 0.01077675
0.1607581 0.04356573 0.01108793
0.1632005 0.04503083 0.01140107
0.1656293 0.0465182 0.01171606
0.168044 0.0480277 0.0120328
0.1704447 0.04955921 0.01235116
0.1728311 0.0511126 0.01267105
0.175203 0.05268774 0.01299236
0.1775602 0.05428449 0.01331499
0.1799025 0.05590271 0.01363882
0.1822298 0.05754228 0.01396374
0.1845419 0.05920304 0.01428967
0.1868386 0.06088486 0.01461648
0.1891197 0.0625876 0.01494409
0.1913851 0.06431111 0.01527237
0.1936345 0.06605525 0.01560124
0.1958678 0.06781988 0.01593059
0.1980849 0.06960483 0.01626032
0.2002855 0.07140996 0.01659033
0.2024695 0.07323513 0.01692051
0.2046367 0.07508017 0.01725078
0.206787 0.07694494 0.01758102
0.2089202 0.07882927 0.01791114
0.2110361 0.08073301 0.01824106
0.2131346 0.08265601 0.01857065
0.2152154 0.08459809 0.01889984
0.2172786 0.0865591 0.01922853
0.2193238 0.08853887 0.01955662
0.221351 0.09053724 0.01988402
0.2233599 0.09255405 0.02021064
0.2253505 0.09458912 0.02053638
0.2273226 0.0966423 0.02086115
0.229276 0.09871339 0.02118486
0.2312107 0.1008023 0.02150742
0.2331263 0.1029087 0.02182875
0.2350229 0.1050325 0.02214874
0.2369002 0.1071736 0.02246733
0.2387582 0.1093318 0.02278441
0.2405966 0.1115068 0.02309991
0.2424154 0.1136985 0.02341373
0.2442144 0.1159068 0.0237258
0.2459935 0.1181313 0.02403602
0.2477525 0.1203721 0.02434433
0.2494913 0.1226288 0.02465062
0.2512098 0.1249013 0.02495483
0.2529079 0.1271894 0.02525688
0.2545854 0.129493 0.02555668
0.2562422 0.1318117 0.02585416
0.2578782 0.1341455 0.02614923
0.2594932 0.1364941 0.02644183
0.2610872 0.1388574 0.02673187
0.26266 0.1412352 0.02701928
0.2642116 0.1436272 0.02730399
0.2657417 0.1460333 0.02758593
0.2672503 0.1484533 0.02786502
0.2687373 0.150887 0.02814118
0.2702025 0.1533341 0.02841436
0.2716459 0.1557946 0.02868449
0.2730673 0.1582681 0.02895148
0.2744667 0.1607545 0.02921528
0.2758439 0.1632536 0.02947582
0.2771989 0.1657652 0.02973304
0.2785315 0.1682891 0.02998686
0.2798416 0.170825 0.03023724
0.2811292 0.1733728 0.03048409
0.2823941 0.1759323 0.03072738
0.2836363 0.1785032 0.03096702
0.2848557 0.1810854 0.03120297
0.2860521 0.1836786 0.03143516
0.2872255 0.1862826 0.03166354
0.2883759 0.1888973 0.03188805
0.289503 0.1915224 0.03210864
0.2906069 0.1941576 0.03232526
0.2916874 0.1968029 0.03253784
0.2927445 0.1994579 0.03274634
0.2937781 0.2021225 0.03295071
0.2947881 0.2047964 0.0331509
0.2957745 0.2074795 0.03334685
0.2967372 0.2101715 0.03353853
0.297676 0.2128721 0.03372588
0.298591 0.2155812 0.03390886
0.2994821 0.2182986 0.03408743
0.3003491 0.2210241 0.03426154
0.3011921 0.2237573 0.03443115
0.302011 0.2264982 0.03459622
0.3028057 0.2292464 0.0347567
0.3035762 0.2320018 0.03491257
0.3043224 0.2347641 0.03506379
0.3050442 0.2375332 0.03521031
0.3057416 0.2403087 0.0353521
0.3064146 0.2430905 0.03548913
0.307063 0.2458784 0.03562137
0.307687 0.2486721 0.03574878
0.3082863 0.2514713 0.03587133
0.3088609 0.254276 0.035989
0.3094109 0.2570858 0.03610176
0.3099362 0.2599005 0.03620957
0.3104367 0.2627199 0.03631242
0.3109124 0.2655438 0.03641028
0.3113633 0.2683719 0.03650313
0.3117893 0.271204 0.03659093
0.3121904 0.2740399 0.03667369
0.3125666 0.2768794 0.03675136
0.3129178 0.2797222 0.03682394
0.3132441 0.282568 0.03689141
0.3135453 0.2854168 0.03695375
0.3138215 0.2882682 0.03701094
0.3140727 0.2911221 0.03706298
0.3142988 0.2939781 0.03710986
0.3144998 0.296836 0.03715155
0.3146758 0.2996957 0.03718805
0.3148266 0.3025569 0.03721935
0.3149523 0.3054194 0.03724545
0.3150529 0.3082828 0.03726633
0.3151283 0.3111471 0.037282
0.3151786 0.314012 0.03729245
0.3152037 0.3168772 0.03729767
0.3152037 0.3197426 0.03729767
0.3151786 0.3226078 0.03729245
0.3151283 0.3254726 0.037282
0.3150529 0.3283369 0.03726633
0.3149523 0.3312004 0.03724545
0.3148266 0.3340629 0.03721935
0.3146758 0.3369241 0.03718805
0.3144998 0.3397837 0.03715155
0.3142988 0.3426417 0.03710986
0.3140727 0.3454977 0.03706298
0.3138215 0.3483515 0.03701094
0.3135453 0.351203 0.03695375
0.3132441 0.3540517 0.03689141
0.3129178 0.3568976 0.03682394
0.3125666 0.3597404 0.03675136
0.3121904 0.3625799 0.03667369
0.3117893 0.3654158 0.03659093
0.3113633 0.3682479 0.03650313
0.3109124 0.371076 0.03641028
0.3104367 0.3738999 0.03631242
0.3099362 0.3767193 0.03620957
0.3094109 0.379534 0.03610176
0.3088609 0.3823438 0.035989
0.3082863 0.3851484 0.03587133
0.307687 0.3879477 0.03574878
0.307063 0.3907414 0.03562137
0.3064146 0.3935292 0.03548913
0.3057416 0.396311 0.0353521
0.3050442 0.3990866 0.03521031
0.3043224 0.4018556 0.03506379
0.3035762 0.404618 0.03491257
0.3028057 0.4073733 0.0347567
0.302011 0.4101216 0.03459622
0.3011921 0.4128624 0.03443115
0.3003491 0.4155957 0.03426154
0.2994821 0.4183211 0.03408743
0.298591 0.4210385 0.03390886
0.297676 0.4237477 0.03372588
0.2967372 0.4264483 0.03353853
0.2957745 0.4291403 0.03334685
0.2947881 0.4318233 0.0331509
0.2937781 0.4344973 0.03295071
0.2927445 0.4371619 0.03274634
0.2916874 0.4398169 0.03253784
0.2906069 0.4424621 0.03232526
0.289503 0.4450974 0.03210864
0.2883759 0.4477225 0.03188805
0.2872255 0.4503371 0.03166354
0.2860521 0.4529412 0.03143516
0.2848557 0.4555344 0.03120297
0.2836363 0.4581166 0.03096702
0.2823941 0.4606875 0.03072738
0.2811292 0.463247 0.03048409
0.2798416 0.4657948 0.03023724
0.2785315 0.4683307 0.02998686
0.2771989 0.4708546 0.02973304
0.2758439 0.4733661 0.02947582
0.2744667 0.4758652 0.02921528
0.2730673 0.4783517 0.02895148
0.2716459 0.4808252 0.02868449
0.2702025 0.4832856 0.02841436
0.2687373 0.4857328 0.02814118
0.2672503 0.4881665 0.02786502
0.2657417 0.4905864 0.02758593
0.2642116 0.4929925 0.02730399
0.26266 0.4953846 0.02701928
0.2610872 0.4977623 0.02673187
0.2594932 0.5001256 0.02644183
0.2578782 0.5024743 0.02614923
0.2562422 0.5048081 0.02585416
0.2545854 0.5071268 0.02555668
0.2529079 0.5094303 0.02525688
0.2512098 0.5117185 0.02495483
0.2494913 0.513991 0.02465062
0.2477525 0.5162477 0.02434433
0.2459935 0.5184884 0.02403602
0.2442144 0.520713 0.0237258
0.2424154 0.5229213 0.02341373
0.2405966 0.525113 0.02309991
0.2387582 0.527288 0.02278441
0.2369002 0.5294461 0.02246733
0.2350229 0.5315872 0.02214874
0.2331263 0.5337111 0.02182875
0.2312107 0.5358175 0.02150742
0.229276 0.5379064 0.02118486
0.2273226 0.5399775 0.02086115
0.2253505 0.5420306 0.02053638
0.2233599 0.5440657 0.02021064
0.221351 0.5460825 0.01988402
0.2193238 0.5480809 0.01955662
0.2172786 0.5500607 0.01922853
0.2152154 0.5520217 0.01889984
0.2131346 0.5539638 0.01857065
0.2110361 0.5558868 0.01824106
0.2089202 0.5577905 0.01791114
0.206787 0.5596748 0.01758102
0.2046367 0.5615396 0.01725078
0.2024695 0.5633846 0.01692051
0.2002855 0.5652098 0.01659033
0.1980849 0.5670149 0.01626032
0.1958678 0.5687999 0.01593059
0.1936345 0.5705645 0.01560124
0.1913851 0.5723087 0.01527237
0.1891197 0.5740322 0.01494409
0.1868386 0.5757349 0.01461648
0.1845419 0.5774167 0.01428967
0.1822298 0.5790775 0.01396374
0.1799025 0.5807171 0.01363882
0.1775602 0.5823353 0.01331499
0.175203 0.583932 0.01299236
0.1728311 0.5855072 0.01267105
0.1704447 0.5870606 0.01235116
0.168044 0.5885921 0.0120328
0.1656293 0.5901016 0.01171606
0.1632005 0.5915889 0.01140107
0.1607581 0.593054 0.01108793
0.1583021 0.5944967 0.01077675
0.1558328 0.5959169 0.01046763
0.1533503 0.5973145 0.0101607
0.1508549 0.5986893 0.009856055
0.1483467 0.6000412 0.009553811
0.1458259 0.6013702 0.009254079
0.1432928 0.602676 0.008956972
0.1407476 0.6039586 0.008662601
0.1381903 0.6052179 0.008371079
0.1356214 0.6064538 0.008082519
0.1330409 0.6076661 0.007797036
0.1304491 0.6088548 0.007514742
0.1278462 0.6100197 0.007235752
0.1252323 0.6111608 0.006960182
0.1226078 0.6122779 0.006688145
0.1199728 0.613371 0.006419757
0.1173275 0.6144399 0.006155134
0.1146722 0.6154846 0.005894392
0.1120071 0.616505 0.005637647
0.1093323 0.617501 0.005385015
0.1066482 0.6184724 0.005136613
0.1039548 0.6194193 0.004892558
0.1012526 0.6203416 0.004652968
0.09854161 0.6212391 0.00441796
0.09582213 0.6221117 0.004187651
0.0930944 0.6229595 0.00396216
0.09035862 0.6237823 0.003741604
0.08761504 0.6245801 0.003526102
0.08486389 0.6253527 0.003315771
0.08210539 0.6261002 0.003110732
0.07933977 0.6268225 0.002911102
0.07656729 0.6275194 0.002716999
0.07378816 0.628191 0.002528543
0.07100263 0.6288372 0.002345854
0.06821094 0.629458 0.002169048
0.06541332 0.6300532 0.001998247
0.06261002 0.6306228 0.001833568
0.05980127 0.6311668 0.001675131
0.05698733 0.6316852 0.001523055
0.05416843 0.6321779 0.001377459
0.05134482 0.6326448 0.001238462
0.04851675 0.633086 0.001106183
0.04568446 0.6335013 0.0009807414
0.0428482 0.6338909 0.0008622551
0.04000823 0.6342545 0.0007508432
0.03716478 0.6345923 0.0006466245
0.03431812 0.6349041 0.0005497173
0.0314685 0.63519 0.00046024
0.02861616 0.6354499 0.0003783108
0.02576136 0.6356839 0.0003040476
0.02290437 0.6358919 0.0002375682
0.02004542 0.6360739 0.0001789902
0.01718479 0.6362299 0.0001284308
0.01432272 0.6363599 8.600713e-05
0.01145949 0.6364638 5.183589e-05
0.008595334 0.6365418 2.603358e-05
0.005730528 0.6365938 8.716347e-06
0.00286533 0.6366198 0
0 0.6366198 0

LINES 349 1047
2 0 1
2 1 2
2 2 3
2 3 4
2 4 5
2 5 6
2 6 7
2 7 8
2 8 9
2 9 10
2 10 11
2 11 12
2 12 13
2 13 14
2 14 15
2 15 16
2 16 17
2 17 18
2 18 19
2 19 20
2 20 21
2 21 22
2 22 23
2 23 24
2 24 25
2 25 26
2 26 27
2 27 28
2 28 29
2 29 30
2 30 31
2 31 32
2 32 33
2 33 34
2 34 35
2 35 36
2 36 37
2 37 38
2 38 39
2 39 40
2 40 41
2 41 42
2 42 43
2 43 44
2 44 45
2 45 46
2 46 47
2 47 48
2 48 49
2 49 50
2 50 51
2 51 52
2 52 53
2 53 54
2 54 55
2 55 56
2 56 57
2 57 58
2 58 59
2 59 60
2 60 61
2 61 62
2 62 63
2 63 64
2 64 65
2 65 66
2 66 67
2 67 68
2 68 69
2 69 70
2 70 71
2 71 72
2 72 73
2 73 74
2 74 75
2 75 76
2 76 77
2 77 78
2 78 79
2 79 80
2 80 81
2 81 82
2 82 83
2 83 84
2 84 85
2 85 86
2 86 87
2 87 88
2 88 89
2 89 90
2 90 91
2 91 92
2 92 93
2 93 94
2 94 95
2 95 96
2 96 97
2 97 98
2 98 99
2 99 100
2 100 101
2 101 102
2 102 103
2 103 104
2 104 105
2 105 106
2 106 107
2 107 108
2 108 109
2 109 110
2 110 111
2 111 112
2 112 113
2 113 114
2 114 115
2 115 116
2 116 117
2 117 118
2 118 119
2 119 120
2 120 121
2 121 122
2 122 123
2 123 124
2 124 125
2 125 126
2 126 127
2 127 128
2 128 129
2 129 130
2 130 131
2 131 132
2 132 133
2 133 134
2 134 135
2 135 136
2 136 137
2 137 138
2 138 139
2 139 140
2 140 141
2 141 142
2 142 143
2 143 144
2 144 145
2 145 146
2 146 147
2 147 148
2 148 149
2 149 150
2 150 151
2 151 152
2 152 153
2 153 154
2 154 155
2 155 156
2 156 157
2 157 158
2 158 159
2 159 160
2 160 161
2 161 162
2 162 163
2 163 164
2 164 165
2 165 166
2 166 167
2 167 168
2 168 169
2 169 170
2 170 171
2 171 172
2 172 173
2 173 174
2 174 175
2 175 176
2 176 177
2 177 178
2 178 179
2 179 180
2 180 181
2 181 182
2 182 183
2 183 184
2 184 185
2 185 186
2 186 187
2 187 188
2 188 189
2 189 190
2 190 191
2 191 192
2 192 193
2 193 194
2 194 195
2 195 196
2 196 197
2 197 198
2 198 199
2 199 200
2 200 201
2 201 202
2 202 203
2 203 204
2 204 205
2 205 206
2 206 207
2 207 208
2 208 209
2 209 210
2 210 211
2 211 212
2 212 213
2 213 214
2 214 215
2 215 216
2 216 217
2 217 218
2 218 219
2 219 220
2 220 221
2 221 222
2 222 223
2 223 224
2 224 225
2 225 226
2 226 227
2 227 228
2 228 229
2 229 230
2 230 231
2 231 232
2 232 233
2 233 234
2 234 235
2 235 236
2 236 237
2 237 238
2 238 239
2 239 240
2 240 241
2 241 242
2 242 243
2 243 244
2 244 245
2 245 246
2 246 247
2 247 248
2 248 249
2 249 250
2 250 251
2 251 252
2 252 253
2 253 254
2 254 255
2 255 256
2 256 257
2 257 258
2 258 259
2 259 260
2 260 261
2 261 262
2 262 263
2 263 264
2 264 265
2 265 266
2 266 267
2 267 268
2 268 269
2 269 270
2 270 271
2 271 272
2 272 273
2 273 274
2 274 275
2 275 276
2 276 277
2 277 278
2 278 279
2 279 280
2 280 281
2 281 282
2 282 283
2 283 284
2 284 285
2 285 286
2 286 287
2 287 288
2 288 289
2 289 290
2 290 291
2 291 292
2 292 293
2 293 294
2 294 295
2 295 296
2 296 297
2 297 298
2 298 299
2 299 300
2 300 301
2 301 302
2 302 303
2 303 304
2 304 305
2 305 306
2 306 307
2 307 308
2 308 309
2 309 310
2 310 311
2 311 312
2 312 313
2 313 314
2 314 315
2 315 316
2 316 317
2 317 318
2 318 319
2 319 320
2 320 321
2 321 322
2 322 323
2 323 324
2 324 325
2 325 326
2 326 327
2 327 328
2 328 329
2 329 330
2 330 331
2 331 332
2 332 333
2 333 334
2 334 335
2 335 336
2 336 337
2 337 338
2 338 339
2 339 340
2 340 341
2 341 342
2 342 343
2 343 344
2 344 345
2 345 346
2 346 347
2 347 348
2 348 349


POINT_DATA 350
SCALARS a FLOAT 1
LOOKUP_TABLE default
0.0005894628
0.0005894628
0.0005894628
0.0005894628
0.0005894628
0.0005894628
0.0005894628
0.0005894628
0.0005894628
0.0005894628
0.0005894628
0.0005894628
0.0005894628
0.0005894628
0.0005894628
0.0005894628
0.0005894628
0.0005894628
0.0005894628
0.0005894628
0.0005894628
0.0005894628
0.0005894628
0.0005894628
0.0005894628
0.0005894628
0.0005894628
0.0005894628
0.0005894628
0.0005894628
0.0005894628
0.0005894628
0.0005894628
0.0005894628
0.0005894628
0.0005894628
0.0005894628
0.0005894628
0.0005894628
0.0005894628
0.0005894628
0.0005894628
0.0005894628
0.0005894628
0.0005894628
0.0005894628
0.0005894628
0.0005894628
0.0005894628
0.0005894628
0.0005894628
0.0005894628
0.0005894628
0.0005894628
0.0005894628
0.0005894628
0.0005894628
0.0005894628
0.0005894628
0.0005894628
0.0005894628
0.0005894628
0.0005894628
0.0005894628
0.0005894628
0.0005894628
0.0005894628
0.0005894628
0.0005894628
0.0005894628
0.0005894628
0.0005894628
0.0005894628
0.0005894628
0.0005894628
0.0005894628
0.0005894628
0.0005894628
0.0005894628
0.0005894628
0.0005894628
0.0005894628
0.0005894628
0.0005894628
0.0005894628
0.0005894628
0.0005894628
0.0005894628
0.0005894628
0.0005894628
0.0005894628
0.0005894628
0.0005894628
0.0005894628
0.0005894628
0.0005894628
0.0005894628
0.0005894628
0.0005894628
0.0005894628
0.0005894628
0.0005894628
0.0005894628
0.0005894628
0.0005894628
0.0005894628
0.0005894628
0.0005894628
0.0005894628
0.0005894628
0.0005894628
0.0005894628
0.0005894628
0.0005894628
0.0005894628
0.0005894628
0.0005894628
0.0005894628
0.0005894628
0.0005894628
0.0005894628
0.0005894628
0.0005894628
0.0005894628
0.0005894628
0.0005894628
0.0005894628
0.0005894628
0.0005894628
0.0005894628
0.0005894628
0.0005894628
0.0005894628
0.0005894628
0.0005894628
0.0005894628
0.0005894628
0.0005894628
0.0005894628
0.0005894628
0.0005894628
0.0005894628
0.0005894628
0.0005894628
0.0005894628
0.0005894628
0.0005894628
0.0005894628
0.0005894628
0.0005894628
0.0005894628
0.0005894628
0.0005894628
0.0005894628
0.0005894628
0.0005894628
0.0005894628
0.0005894628
0.0005894628
0.0005894628
0.0005894628
0.0005894628
0.0005894628
0.0005894628
0.0005894628
0.0005894628
0.0005894628
0.0005894628
0.0005894628
0.0005894628
0.0005894628
0.0005894628
0.0005894628
0.0005894628
0.0005894628
0.0005894628
0.0005894628
0.0005894628
0.0005894628
0.0005894628
0.0005894628
0.0005894628
0.0005894628
0.0005894628
0.0005894628
0.0005894628
0.0005894628
0.0005894628
0.0005894628
0.0005894628
0.0005894628
0.0005894628
0.0005894628
0.0005894628
0.0005894628
0.0005894628
0.0005894628
0.0005894628
0.0005894628
0.0005894628
0.0005894628
0.0005894628
0.0005894628
0.0005894628
0.0005894628
0.0005894628
0.0005894628
0.0005894628
0.0005894628
0.0005894628
0.0005894628
0.0005894628
0.0005894628
0.0005894628
0.0005894628
0.0005894628
0.0005894628
0.0005894628
0.0005894628
0.0005894628
0.0005894628
0.0005894628
0.0005894628
0.0005894628
0.0005894628
0.0005894628
0.0005894628
0.0005894628
0.0005894628
0.0005894628
0.0005894628
0.0005894628
0.0005894628
0.0005894628
0.0005894628
0.0005894628
0.0005894628
0.0005894628
0.0005894628
0.0005894628
0.0005894628
0.0005894628
0.0005894628
0.0005894628
0.0005894628
0.0005894628
0.0005894628
0.0005894628
0.0005894628
0.0005894628
0.0005894628
0.0005894628
0.0005894628
0.0005894628
0.0005894628
0.0005894628
0.0005894628
0.0005894628
0.0005894628
0.0005894628
0.0005894628
0.0005894628
0.0005894628
0.0005894628
0.0005894628
0.0005894628
0.0005894628
0.0005894628
0.0005894628
0.0005894628
0.0005894628
0.0005894628
0.0005894628
0.0005894628
0.0005894628
0.0005894628
0.0005894628
0.0005894628
0.0005894628
0.0005894628
0.0005894628
0.0005894628
0.0005894628
0.0005894628
0.0005894628
0.0005894628
0.0005894628
0.0005894628
0.0005894628
0.0005894628
0.0005894628
0.0005894628
0.0005894628
0.0005894628
0.0005894628
0.0005894628
0.0005894628
0.0005894628
0.0005894628
0.0005894628
0.0005894628
0.0005894628
0.0005894628
0.0005894628
0.0005894628
0.0005894628
0.0005894628
0.0005894628
0.0005894628
0.0005894628
0.0005894628
0.0005894628
0.0005894628
0.0005894628
0.0005894628
0.0005894628
0.0005894628
0.0005894628
0.0005894628
0.0005894628
0.0005894628
0.0005894628
0.0005894628
0.0005894628
0.0005894628
0.0005894628
0.0005894628
0.0005894628
0.0005894628
0.0005894628
0.0005894628
0.0005894628
0.0005894628
0.0005894628
0.0005894628
0.0005894628
0.0005894628
0.0005894628
0.0005894628
0.0005894628
0.0005894628
0.0005894628
0.0005894628
0.0005894628
0.0005894628
0.0005894628
0.0005894628
0.0005894628
0.0005894628
0.0005894628


SCALARS b FLOAT 1
LOOKUP_TABLE default
0.04420971
0.04420971
0.04420971
0.04420971
0.04420971
0.04420971
0.04420971
0.04420971
0.04420971
0.04420971
0.04420971
0.04420971
0.04420971
0.04420971
0.04420971
0.04420971
0.04420971
0.04420971
0.04420971
0.04420971
0.04420971
0.04420971
0.04420971
0.04420971
0.04420971
0.04420971
0.04420971
0.04420971
0.04420971
0.04420971
0.04420971
0.04420971
0.04420971
0.04420971
0.04420971
0.04420971
0.04420971
0.04420971
0.04420971
0.04420971
0.04420971
0.04420971
0.04420971
0.04420971
0.04420971
0.04420971
0.04420971
0.04420971
0.04420971
0.04420971
0.04420971
0.04420971
0.04420971
0.04420971
0.04420971
0.04420971
0.04420971
0.04420971
0.04420971
0.04420971
0.04420971
0.04420971
0.04420971
0.04420971
0.04420971
0.04420971
0.04420971
0.04420971
0.04420971
0.04420971
0.04420971
0.04420971
0.04420971
0.04420971
0.04420971
0.04420971
0.04420971
0.04420971
0.04420971
0.04420971
0.04420971
0.04420971
0.04420971
0.04420971
0.04420971
0.04420971
0.04420971
0.04420971
0.04420971
0.04420971
0.04420971
0.04420971
0.04420971
0.04420971
0.04420971
0.04420971
0.04420971
0.04420971
0.04420971
0.04420971
0.04420971
0.04420971
0.04420971
0.04420971
0.04420971
0.04420971
0.04420971
0.04420971
0.04420971
0.04420971
0.04420971
0.04420971
0.04420971
0.04420971
0.04420971
0.04420971
0.04420971
0.04420971
0.04420971
0.04420971
0.04420971
0.04420971
0.04420971
0.04420971
0.04420971
0.04420971
0.04420971
0.04420971
0.04420971
0.04420971
0.04420971
0.04420971
0.04420971
0.04420971
0.04420971
0.04420971
0.04420971
0.04420971
0.04420971
0.04420971
0.04420971
0.04420971
0.04420971
0.04420971
0.04420971
0.04420971
0.04420971
0.04420971
0.04420971
0.04420971
0.04420971
0.04420971
0.04420971
0.04420971
0.04420971
0.04420971
0.04420971
0.04420971
0.04420971
0.04420971
0.04420971
0.04420971
0.04420971
0.04420971
0.04420971
0.04420971
0.04420971
0.04420971
0.04420971
0.04420971
0.04420971
0.04420971
0.04420971
0.04420971
0.04420971
0.04420971
0.04420971
0.04420971
0.04420971
0.04420971
0.04420971
0.04420971
0.04420971
0.04420971
0.04420971
0.04420971
0.04420971
0.04420971
0.04420971
0.04420971
0.04420971
0.04420971
0.04420971
0.04420971
0.04420971
0.04420971
0.04420971
0.04420971
0.04420971
0.04420971
0.04420971
0.04420971
0.04420971
0.04420971
0.04420971
0.04420971
0.04420971
0.04420971
0.04420971
0.04420971
0.04420971
0.04420971
0.04420971
0.04420971
0.04420971
0.04420971
0.04420971
0.04420971
0.04420971
0.04420971
0.04420971
0.04420971
0.04420971
0.04420971
0.04420971
0.04420971
0.04420971
0.04420971
0.04420971
0.04420971
0.04420971
0.04420971
0.04420971
0.04420971
0.04420971
0.04420971
0.04420971
0.04420971
0.04420971
0.04420971
0.04420971
0.04420971
0.04420971
0.04420971
0.04420971
0.04420971
0.04420971
0.04420971
0.04420971
0.04420971
0.04420971
0.04420971
0.04420971
0.04420971
0.04420971
0.04420971
0.04420971
0.04420971
0.04420971
0.04420971
0.04420971
0.04420971
0.04420971
0.04420971
0.04420971
0.04420971
0.04420971
0.04420971
0.04420971
0.04420971
0.04420971
0.04420971
0.04420971
0.04420971
0.04420971
0.04420971
0.04420971
0.04420971
0.04420971
0.04420971
0.04420971
0.04420971
0.04420971
0.04420971
0.04420971
0.04420971
0.04420971
0.04420971
0.04420971
0.04420971
0.04420971
0.04420971
0.04420971
0.04420971
0.04420971
0.04420971
0.04420971
0.04420971
0.04420971
0.04420971
0.04420971
0.04420971
0.04420971
0.04420971
0.04420971
0.04420971
0.04420971
0.04420971
0.04420971
0.04420971
0.04420971
0.04420971
0.04420971
0.04420971
0.04420971
0.04420971
0.04420971
0.04420971
0.04420971
0.04420971
0.04420971
0.04420971
0.04420971
0.04420971
0.04420971
0.04420971
0.04420971
0.04420971
0.04420971
0.04420971
0.04420971
0.04420971
0.04420971
0.04420971
0.04420971
0.04420971
0.04420971
0.04420971
0.04420971
0.04420971
0.04420971
0.04420971
0.04420971
0.04420971
0.04420971
0.04420971
0.04420971
0.04420971
0.04420971
0.04420971


VECTORS d1 FLOAT
0 0.9474004 0.3200508
-0.00956476 0.9486677 0.31613
-0.01911994 0.949828 0.3121877
-0.02866456 0.9508817 0.3082244
-0.03819762 0.951829 0.304241
-0.04771817 0.95267 0.300238
-0.05722522 0.9534051 0.296216
-0.06671783 0.9540346 0.2921758
-0.07619505 0.9545587 0.2881181
-0.08565594 0.9549777 0.2840434
-0.09509957 0.955292 0.2799524
-0.104525 0.9555018 0.2758458
-0.1139314 0.9556074 0.2717242
-0.1233178 0.9556093 0.2675883
-0.1326833 0.9555078 0.2634388
-0.142027 0.9553032 0.2592762
-0.1513481 0.9549959 0.2551012
-0.1606457 0.9545862 0.2509145
-0.1699189 0.9540746 0.2467168
-0.179167 0.9534615 0.2425085
-0.188389 0.9527472 0.2382905
-0.1975841 0.9519322 0.2340633
-0.2067515 0.9510169 0.2298276
-0.2158905 0.9500017 0.2255839
-0.2250002 0.948887 0.221333
-0.2340798 0.9476734 0.2170755
-0.2431286 0.9463612 0.2128119
-0.2521457 0.944951 0.208543
-0.2611304 0.9434431 0.2042693
-0.2700821 0.9418382 0.1999914
-0.2789998 0.9401365 0.19571
-0.2878829 0.9383388 0.1914257
-0.2967307 0.9364453 0.1871391
-0.3055425 0.9344567 0.1828508
-0.3143175 0.9323735 0.1785614
-0.3230551 0.9301961 0.1742715
-0.3317545 0.9279252 0.1699817
-0.3404151 0.9255612 0.1656927
-0.3490363 0.9231046 0.1614049
-0.3576173 0.920556 0.1571191
-0.3661576 0.917916 0.1528358
-0.3746564 0.9151851 0.1485555
-0.3831132 0.9123639 0.1442789
-0.3915274 0.9094528 0.1400066
-0.3998982 0.9064526 0.1357391
-0.4082252 0.9033637 0.131477
-0.4165076 0.9001868 0.1272209
-0.424745 0.8969224 0.1229713
-0.4329368 0.893571 0.1187288
-0.4410824 0.8901334 0.114494
-0.4491811 0.8866101 0.1102674
-0.4572326 0.8830016 0.1060497
-0.4652362 0.8793086 0.1018412
-0.4731914 0.8755317 0.0976427
-0.4810976 0.8716716 0.09345461
-0.4889545 0.8677287 0.0892775
-0.4967613 0.8637037 0.08511193
-0.5045177 0.8595973 0.08095842
-0.5122232 0.8554101 0.07681751
-0.5198772 0.8511427 0.07268973
-0.5274793 0.8467957 0.06857561
-0.5350291 0.8423698 0.06447567
-0.5425259 0.8378655 0.06039045
-0.5499695 0.8332836 0.05632044
-0.5573594 0.8286246 0.05226618
-0.5646951 0.8238893 0.04822816
-0.5719762 0.8190782 0.04420691
-0.5792022 0.814192 0.04020291
-0.5863728 0.8092313 0.03621669
-0.5934875 0.8041969 0.03224872
-0.600546 0.7990893 0.02829951
-0.6075478 0.7939092 0.02436956
-0.6144926 0.7886572 0.02045934
-0.62138 0.7833341 0.01656934
-0.6282096 0.7779405 0.01270005
-0.634981 0.772477 0.008851934
-0.6416939 0.7669444 0.005025478
-0.648348 0.7613432 0.001221149
-0.6549428 0.7556741 -0.002560585
-0.6614781 0.7499379 -0.00631926
-0.6679535 0.7441351 -0.01005441
-0.6743687 0.7382665 -0.01376559
-0.6807233 0.7323327 -0.01745234
-0.6870171 0.7263344 -0.0211142
-0.6932498 0.7202723 -0.02475073
-0.699421 0.714147 -0.02836149
-0.7055304 0.7079592 -0.03194604
-0.7115778 0.7017097 -0.03550393
-0.7175629 0.695399 -0.03903475
-0.7234854 0.6890278 -0.04253804
-0.729345 0.682597 -0.0460134
-0.7351415 0.676107 -0.0494604
-0.7408746 0.6695586 -0.05287861
-0.746544 0.6629525 -0.05626763
-0.7521495 0.6562894 -0.05962704
-0.7576908 0.6495699 -0.06295642
-0.7631678 0.6427948 -0.06625539
-0.7685801 0.6359647 -0.06952353
-0.7739276 0.6290803 -0.07276044
-0.77921 0.6221423 -0.07596574
-0.7844271 0.6151513 -0.07913903
-0.7895786 0.6081082 -0.08227993
-0.7946645 0.6010135 -0.08538805
-0.7996844 0.593868 -0.08846301
-0.8046382 0.5866723 -0.09150444
-0.8095256 0.5794271 -0.09451196
-0.8143465 0.5721331 -0.09748521
-0.8191008 0.5647911 -0.1004238
-0.8237881 0.5574017 -0.1033274
-0.8284083 0.5499656 -0.1061957
-0.8329613 0.5424834 -0.1090282
-0.8374469 0.534956 -0.1118247
-0.8418649 0.5273839 -0.1145848
-0.8462152 0.5197679 -0.1173082
-0.8504976 0.5121086 -0.1199944
-0.8547118 0.5044069 -0.1226433
-0.8588579 0.4966632 -0.1252544
-0.8629357 0.4888785 -0.1278274
-0.8669449 0.4810533 -0.1303621
-0.8708855 0.4731883 -0.1328581
-0.8747573 0.4652843 -0.135315
-0.8785602 0.4573419 -0.1377326
-0.8822941 0.4493619 -0.1401106
-0.8859588 0.4413449 -0.1424487
-0.8895542 0.4332917 -0.1447465
-0.8930803 0.4252029 -0.1470038
-0.8965368 0.4170793 -0.1492204
-0.8999236 0.4089215 -0.1513958
-0.9032408 0.4007302 -0.1535299
-0.906488 0.3925062 -0.1556224
-0.9096654 0.3842501 -0.157673
-0.9127726 0.3759627 -0.1596814
-0.9158098 0.3676447 -0.1616475
-0.9187766 0.3592967 -0.1635708
-0.9216732 0.3509194 -0.1654512
-0.9244993 0.3425137 -0.1672885
-0.9272549 0.3340801 -0.1690824
-0.9299399 0.3256194 -0.1708327
-0.9325542 0.3171323 -0.1725391
-0.9350978 0.3086194 -0.1742014
-0.9375705 0.3000816 -0.1758195
-0.9399724 0.2915195 -0.177393
-0.9423033 0.2829338 -0.1789219
-0.9445631 0.2743252 -0.1804058
-0.9467518 0.2656945 -0.1818446
-0.9488694 0.2570423 -0.1832381
-0.9509157 0.2483694 -0.1845862
-0.9528907 0.2396764 -0.1858885
-0.9547944 0.2309641 -0.1871451
-0.9566267 0.2222332 -0.1883556
-0.9583875 0.2134844 -0.18952
-0.9600768 0.2047184 -0.1906381
-0.9616946 0.1959359 -0.1917097
-0.9632408 0.1871376 -0.1927347
-0.9647154 0.1783243 -0.193713
-0.9661182 0.1694967 -0.1946443
-0.9674494 0.1606555 -0.1955287
-0.9687088 0.1518013 -0.196366
-0.9698964 0.142935 -0.197156
-0.9710122 0.1340572 -0.1978987
-0.9720562 0.1251686 -0.1985939
-0.9730283 0.11627 -0.1992416
-0.9739285 0.107362 -0.1998417
-0.9747567 0.09844544 -0.2003941
-0.9755131 0.08952098 -0.2008987
-0.9761974 0.08058934 -0.2013554
-0.9768097 0.07165125 -0.2017643
-0.9773501 0.06270741 -0.2021251
-0.9778184 0.05375854 -0.202438
-0.9782147 0.04480537 -0.2027028
-0.978539 0.0358486 -0.2029195
-0.9787912 0.02688896 -0.203088
-0.9789714 0.01792717 -0.2032085
-0.9790795 0.008963947 -0.2032807
-0.9791155 1.161773e-09 -0.2033048
-0.9790795 -0.008963944 -0.2032807
-0.9789714 -0.01792717 -0.2032085
-0.9787912 -0.02688896 -0.203088
-0.978539 -0.0358486 -0.2029195
-0.9782147 -0.04480536 -0.2027028
-0.9778184 -0.05375854 -0.202438
-0.9773501 -0.0627074 -0.2021251
-0.9768097 -0.07165124 -0.2017643
-0.9761974 -0.08058934 -0.2013554
-0.9755131 -0.08952098 -0.2008987
-0.9747567 -0.09844544 -0.2003941
-0.9739285 -0.107362 -0.1998417
-0.9730283 -0.11627 -0.1992416
-0.9720562 -0.1251686 -0.1985939
-0.9710122 -0.1340572 -0.1978987
-0.9698964 -0.142935 -0.197156
-0.9687088 -0.1518013 -0.196366
-0.9674494 -0.1606555 -0.1955287
-0.9661182 -0.1694967 -0.1946443
-0.9647154 -0.1783243 -0.193713
-0.9632408 -0.1871376 -0.1927347
-0.9616946 -0.1959359 -0.1917097
-0.9600768 -0.2047183 -0.1906381
-0.9583875 -0.2134844 -0.18952
-0.9566267 -0.2222332 -0.1883556
-0.9547944 -0.2309641 -0.1871451
-0.9528907 -0.2396764 -0.1858885
-0.9509157 -0.2483694 -0.1845862
-0.9488694 -0.2570423 -0.1832381
-0.9467518 -0.2656945 -0.1818446
-0.9445631 -0.2743252 -0.1804058
-0.9423033 -0.2829338 -0.1789219
-0.9399724 -0.2915195 -0.177393
-0.9375705 -0.3000816 -0.1758195
-0.9350978 -0.3086194 -0.1742014
-0.9325542 -0.3171323 -0.1725391
-0.9299399 -0.3256194 -0.1708327
-0.9272549 -0.3340801 -0.1690824
-0.9244993 -0.3425137 -0.1672885
-0.9216732 -0.3509194 -0.1654512
-0.9187766 -0.3592967 -0.1635708
-0.9158098 -0.3676447 -0.1616475
-0.9127726 -0.3759627 -0.1596814
-0.9096654 -0.3842501 -0.157673
-0.906488 -0.3925062 -0.1556224
-0.9032408 -0.4007302 -0.1535299
-0.8999236 -0.4089215 -0.1513958