# vtk DataFile Version 2.0
Written badly by Kevin Korner
ASCII
DATASET POLYDATA
POINTS 350 FLOAT
0 0 0
0.00286533 0 0
0.005725941 -0.0001549153 5.494516e-05
0.008571802 -0.0004671858 0.000171877
0.01139201 -0.0009382484 0.0003579567
0.01417485 -0.001568391 0.0006203747
0.01690783 -0.002356611 0.0009662468
0.01957783 -0.003300478 0.001402497
0.0221712 -0.004396019 0.00193573
0.02467392 -0.005637618 0.002572091
0.02707178 -0.007017945 0.003317128
0.0293506 -0.008527918 0.004175645
0.03149647 -0.0101567 0.005151561
0.03349597 -0.01189176 0.006247782
0.03533644 -0.01371892 0.007466081
0.03700624 -0.01562256 0.008807004
0.03849497 -0.01758573 0.0102698
0.03979373 -0.01959042 0.01185236
0.04089532 -0.02161782 0.01355126
0.04179438 -0.02364861 0.01536171
0.0424875 -0.02566325 0.01727767
0.04297336 -0.02764233 0.01929194
0.04325266 -0.0295669 0.02139626
0.04332816 -0.03141873 0.02358147
0.04320458 -0.03318064 0.02583768
0.04288843 -0.03483675 0.02815447
0.0423879 -0.03637263 0.03052104
0.04171263 -0.03777553 0.03292644
0.0408735 -0.03903448 0.03535976
0.03988235 -0.04014032 0.03781024
0.03875179 -0.04108576 0.04026749
0.03749493 -0.04186533 0.04272161
0.03612515 -0.04247532 0.04516327
0.03465587 -0.0429137 0.04758384
0.0331004 -0.04317999 0.04997543
0.03147169 -0.04327511 0.05233093
0.02978229 -0.04320122 0.05464406
0.02804411 -0.0429616 0.05690933
0.02626844 -0.04256045 0.05912206
0.0244658 -0.04200274 0.06127835
0.02264593 -0.04129406 0.063375
0.02081776 -0.04044051 0.06540954
0.01898941 -0.0394485 0.06738012
0.01716817 -0.03832472 0.06928545
0.01536054 -0.03707596 0.0711248
0.01357227 -0.03570907 0.07289788
0.01180838 -0.03423086 0.07460483
0.01007319 -0.03264803 0.07624614
0.008370398 -0.03096714 0.0778226
0.006703112 -0.02919456 0.07933528
0.00507389 -0.02733641 0.08078547
0.003484802 -0.02539857 0.08217461
0.001937471 -0.02338666 0.08350431
0.0004331174 -0.02130601 0.08477628
-0.001027394 -0.01916165 0.08599232
-0.002443515 -0.01695834 0.08715428
-0.003814977 -0.01470055 0.08826405
-0.005141758 -0.01239247 0.08932354
-0.006424044 -0.01003801 0.09033467
-0.007662206 -0.007640832 0.09129934
-0.008856771 -0.005204324 0.09221942
-0.0100084 -0.00273165 0.09309678
-0.01111785 -0.0002257391 0.09393322
-0.012186 0.002310696 0.09473051
-0.01321378 0.004875145 0.09549037
-0.01420217 0.007465293 0.09621447
-0.01515223 0.010079 0.09690442
-0.01606502 0.0127143 0.09756179
-0.01694164 0.01536937 0.09818807
-0.01778321 0.01804255 0.09878471
-0.01859084 0.02073231 0.09935309
-0.01936566 0.02343723 0.09989455
-0.02010878 0.02615602 0.1004104
-0.02082131 0.0288875 0.1009017
-0.02150433 0.03163058 0.1013698
-0.02215893 0.03438426 0.1018158
-0.02278616 0.03714762 0.1022406
-0.02338705 0.03991984 0.1026454
-0.02396261 0.04270015 0.1030311
-0.02451382 0.04548784 0.1033985
-0.02504165 0.04828228 0.1037487
-0.02554701 0.05108289 0.1040824
-0.02603081 0.05388911 0.1044004
-0.02649393 0.05670048 0.1047035
-0.0269372 0.05951653 0.1049924
-0.02736145 0.06233687 0.1052678
-0.02776745 0.06516112 0.1055303
-0.02815598 0.06798893 0.1057806
-0.02852775 0.07082 0.1060192
-0.02888349 0.07365404 0.1062467
-0.02922385 0.0764908 0.1064637
-0.02954951 0.07933003 0.1066706
-0.02986107 0.08217152 0.106868
-0.03015915 0.08501508 0.1070562
-0.03044432 0.08786053 0.1072358
-0.03071714 0.09070769 0.1074071
-0.03097813 0.09355642 0.1075705
-0.03122781 0.09640659 0.1077265
-0.03146666 0.09925807 0.1078753
-0.03169515 0.1021107 0.1080173
-0.03191372 0.1049645 0.1081528
-0.03212282 0.1078193 0.1082821
-0.03232283 0.1106749 0.1084056
-0.03251417 0.1135314 0.1085234
-0.03269719 0.1163887 0.1086359
-0.03287227 0.1192467 0.1087432
-0.03303974 0.1221053 0.1088458
-0.03319994 0.1249644 0.1089436
-0.03335317 0.1278241 0.1090371
-0.03349974 0.1306843 0.1091263
-0.03363993 0.133545 0.1092115
-0.03377403 0.136406 0.1092928
-0.03390228 0.1392674 0.1093705
-0.03402495 0.1421291 0.1094446
-0.03414227 0.1449912 0.1095155
-0.03425447 0.1478535 0.1095831
-0.03436177 0.1507161 0.1096477
-0.03446438 0.1535789 0.1097093
-0.0345625 0.156442 0.1097682
-0.03465633 0.1593052 0.1098244
-0.03474604 0.1621686 0.1098781
-0.03483181 0.1650322 0.1099294
-0.03491381 0.167896 0.1099783
-0.0349922 0.1707598 0.110025
-0.03506714 0.1736238 0.1100696
-0.03513876 0.176488 0.1101122
-0.0352072 0.1793522 0.1101529
-0.03527261 0.1822165 0.1101917
-0.03533511 0.1850809 0.1102287
-0.03539482 0.1879454 0.110264
-0.03545186 0.19081 0.1102977
-0.03550634 0.1936746 0.1103299
-0.03555836 0.1965393 0.1103606
-0.03560803 0.199404 0.1103898
-0.03565544 0.2022688 0.1104177
-0.03570069 0.2051337 0.1104443
-0.03574386 0.2079986 0.1104697
-0.03578504 0.2108635 0.1104939
-0.03582432 0.2137285 0.1105169
-0.03586175 0.2165935 0.1105388
-0.03589743 0.2194585 0.1105597
-0.03593141 0.2223236 0.1105795
-0.03596377 0.2251887 0.1105984
-0.03599457 0.2280538 0.1106164
-0.03602386 0.2309189 0.1106335
-0.03605171 0.233784 0.1106497
-0.03607817 0.2366492 0.1106651
-0.0361033 0.2395144 0.1106797
-0.03612713 0.2423796 0.1106935
-0.03614971 0.2452448 0.1107066
-0.0361711 0.24811 0.1107191
-0.03619133 0.2509753 0.1107308
-0.03621045 0.2538405 0.1107419
-0.03622848 0.2567058 0.1107523
-0.03624547 0.259571 0.1107621
-0.03626144 0.2624363 0.1107713
-0.03627644 0.2653016 0.11078
-0.03629048 0.2681669 0.1107881
-0.0363036 0.2710321 0.1107957
-0.03631581 0.2738974 0.1108027
-0.03632716 0.2767627 0.1108093
-0.03633765 0.279628 0.1108153
-0.03634731 0.2824933 0.1108209
-0.03635615 0.2853587 0.110826
-0.0363642 0.288224 0.1108306
-0.03637147 0.2910893 0.1108348
-0.03637797 0.2939546 0.1108385
-0.03638371 0.2968199 0.1108418
-0.03638872 0.2996853 0.1108447
-0.03639299 0.3025506 0.1108471
-0.03639653 0.3054159 0.1108492
-0.03639936 0.3082812 0.1108508
-0.03640148 0.3111466 0.110852
-0.03640289 0.3140119 0.1108528
-0.03640359 0.3168772 0.1108532
-0.03640359 0.3197426 0.1108532
-0.03640289 0.3226079 0.1108528
-0.03640148 0.3254732 0.110852
-0.03639936 0.3283385 0.1108508
-0.03639653 0.3312039 0.1108492
-0.03639299 0.3340692 0.1108471
-0.03638872 0.3369345 0.1108447
-0.03638371 0.3397998 0.1108418
-0.03637797 0.3426652 0.1108385
-0.03637147 0.3455305 0.1108348
-0.0363642 0.3483958 0.1108306
-0.03635615 0.3512611 0.110826
-0.03634731 0.3541264 0.1108209
-0.03633765 0.3569917 0.1108153
-0.03632716 0.359857 0.1108093
-0.03631581 0.3627223 0.1108027
-0.0363036 0.3655876 0.1107957
-0.03629048 0.3684529 0.1107881
-0.03627644 0.3713182 0.11078
-0.03626144 0.3741835 0.1107713
-0.03624547 0.3770488 0.1107621
-0.03622848 0.379914 0.1107523
-0.03621045 0.3827793 0.1107419
-0.03619133 0.3856445 0.1107308
-0.0361711 0.3885097 0.1107191
-0.03614971 0.391375 0.1107066
-0.03612713 0.3942402 0.1106935
-0.03610329 0.3971054 0.1106797
-0.03607817 0.3999706 0.1106651
-0.03605171 0.4028357 0.1106497
-0.03602386 0.4057009 0.1106335
-0.03599457 0.408566 0.1106164
-0.03596377 0.4114311 0.1105984
-0.03593141 0.4142962 0.1105795
-0.03589743 0.4171613 0.1105597
-0.03586175 0.4200263 0.1105388
-0.03582432 0.4228913 0.1105169
-0.03578504 0.4257563 0.1104939
-0.03574386 0.4286212 0.1104697
-0.03570069 0.4314861 0.1104443
-0.03565544 0.4343509 0.1104177
-0.03560803 0.4372157 0.1103898
-0.03555836 0.4400805 0.1103606
-0.03550634 0.4429452 0.1103299
-0.03545186 0.4458098 0.1102977
-0.03539482 0.4486744 0.110264
-0.03533511 0.4515389 0.1102287
-0.03527261 0.4544033 0.1101917
-0.0352072 0.4572676 0.1101529
-0.03513875 0.4601318 0.1101122
-0.03506713 0.4629959 0.1100696
-0.0349922 0.4658599 0.110025
-0.03491381 0.4687238 0.1099783
-0.03483181 0.4715875 0.1099294
-0.03474604 0.4744511 0.1098781
-0.03465633 0.4773145 0.1098244
-0.0345625 0.4801778 0.1097682
-0.03446438 0.4830408 0.1097093
-0.03436177 0.4859037 0.1096477
-0.03425446 0.4887663 0.1095831
-0.03414226 0.4916286 0.1095155
-0.03402495 0.4944906 0.1094446
-0.03390228 0.4973524 0.1093705
-0.03377403 0.5002138 0.1092928
-0.03363993 0.5030748 0.1092115
-0.03349974 0.5059354 0.1091263
-0.03335317 0.5087956 0.1090371
-0.03319994 0.5116553 0.1089436
-0.03303974 0.5145145 0.1088458
-0.03287227 0.5173731 0.1087432
-0.03269719 0.5202311 0.1086359
-0.03251417 0.5230883 0.1085234
-0.03232283 0.5259448 0.1084056
-0.03212282 0.5288005 0.1082821
-0.03191372 0.5316553 0.1081528
-0.03169515 0.534509 0.1080173
-0.03146666 0.5373617 0.1078753
-0.03122781 0.5402132 0.1077265
-0.03097813 0.5430633 0.1075705
-0.03071714 0.5459121 0.1074071
-0.03044432 0.5487592 0.1072358
-0.03015915 0.5516047 0.1070562
-0.02986107 0.5544482 0.106868
-0.02954951 0.5572897 0.1066706
-0.02922385 0.560129 0.1064637
-0.02888349 0.5629657 0.1062467
-0.02852775 0.5657998 0.1060192
-0.02815598 0.5686308 0.1057806
-0.02776745 0.5714587 0.1055303
-0.02736145 0.5742829 0.1052678
-0.0269372 0.5771032 0.1049924
-0.02649393 0.5799193 0.1047035
-0.02603081 0.5827307 0.1044004
-0.02554701 0.5855369 0.1040824
-0.02504165 0.5883375 0.1037487
-0.02451382 0.5911319 0.1033985
-0.02396261 0.5939196 0.1030311
-0.02338705 0.5966999 0.1026454
-0.02278616 0.5994721 0.1022406
-0.02215893 0.6022355 0.1018158
-0.02150433 0.6049892 0.1013698
-0.02082131 0.6077323 0.1009017
-0.02010878 0.6104637 0.1004104
-0.01936566 0.6131825 0.09989455
-0.01859084 0.6158875 0.09935309
-0.01778321 0.6185772 0.09878471
-0.01694164 0.6212504 0.09818807
-0.01606502 0.6239055 0.09756179
-0.01515223 0.6265408 0.09690442
-0.01420217 0.6291545 0.09621447
-0.01321378 0.6317446 0.09549037
-0.012186 0.6343091 0.0947305
-0.01111785 0.6368455 0.09393322
-0.0100084 0.6393514 0.09309678
-0.00885677 0.6418241 0.09221942
-0.007662206 0.6442606 0.09129934
-0.006424044 0.6466578 0.09033467
-0.005141758 0.6490122 0.08932354
-0.003814977 0.6513203 0.08826405
-0.002443514 0.6535781 0.08715428
-0.001027393 0.6557814 0.08599232
0.0004331176 0.6579258 0.08477628
0.001937471 0.6600064 0.08350431
0.003484803 0.6620183 0.08217461
0.00507389 0.6639562 0.08078547
0.006703112 0.6658143 0.07933528
0.008370398 0.6675869 0.0778226
0.01007319 0.6692678 0.07624614
0.01180838 0.6708506 0.07460483
0.01357227 0.6723288 0.07289788
0.01536054 0.6736957 0.0711248
0.01716817 0.6749445 0.06928545
0.01898941 0.6760683 0.06738012
0.02081776 0.6770603 0.06540954
0.02264593 0.6779138 0.063375
0.0244658 0.6786225 0.06127835
0.02626844 0.6791802 0.05912206
0.02804411 0.6795814 0.05690933
0.02978229 0.679821 0.05464406
0.03147169 0.6798949 0.05233094
0.0331004 0.6797998 0.04997543
0.03465587 0.6795335 0.04758384
0.03612515 0.6790951 0.04516327
0.03749493 0.6784851 0.04272161
0.03875179 0.6777055 0.04026749
0.03988235 0.6767601 0.03781024
0.0408735 0.6756543 0.03535976
0.04171263 0.6743953 0.03292644
0.0423879 0.6729924 0.03052104
0.04288843 0.6714565 0.02815447
0.04320458 0.6698004 0.02583768
0.04332816 0.6680385 0.02358147
0.04325266 0.6661867 0.02139626
0.04297336 0.6642621 0.01929195
0.0424875 0.662283 0.01727767
0.04179438 0.6602684 0.01536171
0.04089532 0.6582376 0.01355126
0.03979373 0.6562102 0.01185236
0.03849497 0.6542055 0.0102698
0.03700624 0.6522423 0.008807004
0.03533644 0.6503387 0.007466081
0.03349597 0.6485115 0.006247782
0.03149647 0.6467765 0.005151561
0.0293506 0.6451477 0.004175645
0.02707178 0.6436377 0.003317128
0.02467392 0.6422574 0.002572091
0.0221712 0.6410158 0.00193573
0.01957783 0.6399202 0.001402497
0.01690783 0.6389764 0.0009662468
0.01417485 0.6381882 0.0006203747
0.01139201 0.637558 0.0003579567
0.008571802 0.637087 0.000171877
0.005725941 0.6367747 5.494516e-05
0.00286533 0.6366198 0
0 0.6366198 0

LINES 349 1047
2 0 1
2 1 2
2 2 3
2 3 4
2 4 5
2 5 6
2 6 7
2 7 8
2 8 9
2 9 10
2 10 11
2 11 12
2 12 13
2 13 14
2 14 15
2 15 16
2 16 17
2 17 18
2 18 19
2 19 20
2 20 21
2 21 22
2 22 23
2 23 24
2 24 25
2 25 26
2 26 27
2 27 28
2 28 29
2 29 30
2 30 31
2 31 32
2 32 33
2 33 34
2 34 35
2 35 36
2 36 37
2 37 38
2 38 39
2 39 40
2 40 41
2 41 42
2 42 43
2 43 44
2 44 45
2 45 46
2 46 47
2 47 48
2 48 49
2 49 50
2 50 51
2 51 52
2 52 53
2 53 54
2 54 55
2 55 56
2 56 57
2 57 58
2 58 59
2 59 60
2 60 61
2 61 62
2 62 63
2 63 64
2 64 65
2 65 66
2 66 67
2 67 68
2 68 69
2 69 70
2 70 71
2 71 72
2 72 73
2 73 74
2 74 75
2 75 76
2 76 77
2 77 78
2 78 79
2 79 80
2 80 81
2 81 82
2 82 83
2 83 84
2 84 85
2 85 86
2 86 87
2 87 88
2 88 89
2 89 90
2 90 91
2 91 92
2 92 93
2 93 94
2 94 95
2 95 96
2 96 97
2 97 98
2 98 99
2 99 100
2 100 101
2 101 102
2 102 103
2 103 104
2 104 105
2 105 106
2 106 107
2 107 108
2 108 109
2 109 110
2 110 111
2 111 112
2 112 113
2 113 114
2 114 115
2 115 116
2 116 117
2 117 118
2 118 119
2 119 120
2 120 121
2 121 122
2 122 123
2 123 124
2 124 125
2 125 126
2 126 127
2 127 128
2 128 129
2 129 130
2 130 131
2 131 132
2 132 133
2 133 134
2 134 135
2 135 136
2 136 137
2 137 138
2 138 139
2 139 140
2 140 141
2 141 142
2 142 143
2 143 144
2 144 145
2 145 146
2 146 147
2 147 148
2 148 149
2 149 150
2 150 151
2 151 152
2 152 153
2 153 154
2 154 155
2 155 156
2 156 157
2 157 158
2 158 159
2 159 160
2 160 161
2 161 162
2 162 163
2 163 164
2 164 165
2 165 166
2 166 167
2 167 168
2 168 169
2 169 170
2 170 171
2 171 172
2 172 173
2 173 174
2 174 175
2 175 176
2 176 177
2 177 178
2 178 179
2 179 180
2 180 181
2 181 182
2 182 183
2 183 184
2 184 185
2 185 186
2 186 187
2 187 188
2 188 189
2 189 190
2 190 191
2 191 192
2 192 193
2 193 194
2 194 195
2 195 196
2 196 197
2 197 198
2 198 199
2 199 200
2 200 201
2 201 202
2 202 203
2 203 204
2 204 205
2 205 206
2 206 207
2 207 208
2 208 209
2 209 210
2 210 211
2 211 212
2 212 213
2 213 214
2 214 215
2 215 216
2 216 217
2 217 218
2 218 219
2 219 220
2 220 221
2 221 222
2 222 223
2 223 224
2 224 225
2 225 226
2 226 227
2 227 228
2 228 229
2 229 230
2 230 231
2 231 232
2 232 233
2 233 234
2 234 235
2 235 236
2 236 237
2 237 238
2 238 239
2 239 240
2 240 241
2 241 242
2 242 243
2 243 244
2 244 245
2 245 246
2 246 247
2 247 248
2 248 249
2 249 250
2 250 251
2 251 252
2 252 253
2 253 254
2 254 255
2 255 256
2 256 257
2 257 258
2 258 259
2 259 260
2 260 261
2 261 262
2 262 263
2 263 264
2 264 265
2 265 266
2 266 267
2 267 268
2 268 269
2 269 270
2 270 271
2 271 272
2 272 273
2 273 274
2 274 275
2 275 276
2 276 277
2 277 278
2 278 279
2 279 280
2 280 281
2 281 282
2 282 283
2 283 284
2 284 285
2 285 286
2 286 287
2 287 288
2 288 289
2 289 290
2 290 291
2 291 292
2 292 293
2 293 294
2 294 295
2 295 296
2 296 297
2 297 298
2 298 299
2 299 300
2 300 301
2 301 302
2 302 303
2 303 304
2 304 305
2 305 306
2 306 307
2 307 308
2 308 309
2 309 310
2 310 311
2 311 312
2 312 313
2 313 314
2 314 315
2 315 316
2 316 317
2 317 318
2 318 319
2 319 320
2 320 321
2 321 322
2 322 323
2 323 324
2 324 325
2 325 326
2 326 327
2 327 328
2 328 329
2 329 330
2 330 331
2 331 332
2 332 333
2 333 334
2 334 335
2 335 336
2 336 337
2 337 338
2 338 339
2 339 340
2 340 341
2 341 342
2 342 343
2 343 344
2 344 345
2 345 346
2 346 347
2 347 348
2 348 349


POINT_DATA 350
SCALARS a FLOAT 1
LOOKUP_TABLE default
0.0005894628
0.0005894628
0.0005894628
0.0005894628
0.0005894628
0.0005894628
0.0005894628
0.0005894628
0.0005894628
0.0005894628
0.0005894628
0.0005894628
0.0005894628
0.0005894628
0.0005894628
0.0005894628
0.0005894628
0.0005894628
0.0005894628
0.0005894628
0.0005894628
0.0005894628
0.0005894628
0.0005894628
0.0005894628
0.0005894628
0.0005894628
0.0005894628
0.0005894628
0.0005894628
0.0005894628
0.0005894628
0.0005894628
0.0005894628
0.0005894628
0.0005894628
0.0005894628
0.0005894628
0.0005894628
0.0005894628
0.0005894628
0.0005894628
0.0005894628
0.0005894628
0.0005894628
0.0005894628
0.0005894628
0.0005894628
0.0005894628
0.0005894628
0.0005894628
0.0005894628
0.0005894628
0.0005894628
0.0005894628
0.0005894628
0.0005894628
0.0005894628
0.0005894628
0.0005894628
0.0005894628
0.0005894628
0.0005894628
0.0005894628
0.0005894628
0.0005894628
0.0005894628
0.0005894628
0.0005894628
0.0005894628
0.0005894628
0.0005894628
0.0005894628
0.0005894628
0.0005894628
0.0005894628
0.0005894628
0.0005894628
0.0005894628
0.0005894628
0.0005894628
0.0005894628
0.0005894628
0.0005894628
0.0005894628
0.0005894628
0.0005894628
0.0005894628
0.0005894628
0.0005894628
0.0005894628
0.0005894628
0.0005894628
0.0005894628
0.0005894628
0.0005894628
0.0005894628
0.0005894628
0.0005894628
0.0005894628
0.0005894628
0.0005894628
0.0005894628
0.0005894628
0.0005894628
0.0005894628
0.0005894628
0.0005894628
0.0005894628
0.0005894628
0.0005894628
0.0005894628
0.0005894628
0.0005894628
0.0005894628
0.0005894628
0.0005894628
0.0005894628
0.0005894628
0.0005894628
0.0005894628
0.0005894628
0.0005894628
0.0005894628
0.0005894628
0.0005894628
0.0005894628
0.0005894628
0.0005894628
0.0005894628
0.0005894628
0.0005894628
0.0005894628
0.0005894628
0.0005894628
0.0005894628
0.0005894628
0.0005894628
0.0005894628
0.0005894628
0.0005894628
0.0005894628
0.0005894628
0.0005894628
0.0005894628
0.0005894628
0.0005894628
0.0005894628
0.0005894628
0.0005894628
0.0005894628
0.0005894628
0.0005894628
0.0005894628
0.0005894628
0.0005894628
0.0005894628
0.0005894628
0.0005894628
0.0005894628
0.0005894628
0.0005894628
0.0005894628
0.0005894628
0.0005894628
0.0005894628
0.0005894628
0.0005894628
0.0005894628
0.0005894628
0.0005894628
0.0005894628
0.0005894628
0.0005894628
0.0005894628
0.0005894628
0.0005894628
0.0005894628
0.0005894628
0.0005894628
0.0005894628
0.0005894628
0.0005894628
0.0005894628
0.0005894628
0.0005894628
0.0005894628
0.0005894628
0.0005894628
0.0005894628
0.0005894628
0.0005894628
0.0005894628
0.0005894628
0.0005894628
0.0005894628
0.0005894628
0.0005894628
0.0005894628
0.0005894628
0.0005894628
0.0005894628
0.0005894628
0.0005894628
0.0005894628
0.0005894628
0.0005894628
0.0005894628
0.0005894628
0.0005894628
0.0005894628
0.0005894628
0.0005894628
0.0005894628
0.0005894628
0.0005894628
0.0005894628
0.0005894628
0.0005894628
0.0005894628
0.0005894628
0.0005894628
0.0005894628
0.0005894628
0.0005894628
0.0005894628
0.0005894628
0.0005894628
0.0005894628
0.0005894628
0.0005894628
0.0005894628
0.0005894628
0.0005894628
0.0005894628
0.0005894628
0.0005894628
0.0005894628
0.0005894628
0.0005894628
0.0005894628
0.0005894628
0.0005894628
0.0005894628
0.0005894628
0.0005894628
0.0005894628
0.0005894628
0.0005894628
0.0005894628
0.0005894628
0.0005894628
0.0005894628
0.0005894628
0.0005894628
0.0005894628
0.0005894628
0.0005894628
0.0005894628
0.0005894628
0.0005894628
0.0005894628
0.0005894628
0.0005894628
0.0005894628
0.0005894628
0.0005894628
0.0005894628
0.0005894628
0.0005894628
0.0005894628
0.0005894628
0.0005894628
0.0005894628
0.0005894628
0.0005894628
0.0005894628
0.0005894628
0.0005894628
0.0005894628
0.0005894628
0.0005894628
0.0005894628
0.0005894628
0.0005894628
0.0005894628
0.0005894628
0.0005894628
0.0005894628
0.0005894628
0.0005894628
0.0005894628
0.0005894628
0.0005894628
0.0005894628
0.0005894628
0.0005894628
0.0005894628
0.0005894628
0.0005894628
0.0005894628
0.0005894628
0.0005894628
0.0005894628
0.0005894628
0.0005894628
0.0005894628
0.0005894628
0.0005894628
0.0005894628
0.0005894628
0.0005894628
0.0005894628
0.0005894628
0.0005894628
0.0005894628
0.0005894628
0.0005894628
0.0005894628
0.0005894628
0.0005894628
0.0005894628
0.0005894628
0.0005894628
0.0005894628
0.0005894628
0.0005894628
0.0005894628
0.0005894628
0.0005894628
0.0005894628
0.0005894628
0.0005894628
0.0005894628
0.0005894628
0.0005894628
0.0005894628
0.0005894628
0.0005894628
0.0005894628
0.0005894628
0.0005894628
0.0005894628
0.0005894628
0.0005894628
0.0005894628
0.0005894628
0.0005894628
0.0005894628
0.0005894628


SCALARS b FLOAT 1
LOOKUP_TABLE default
0.04420971
0.04420971
0.04420971
0.04420971
0.04420971
0.04420971
0.04420971
0.04420971
0.04420971
0.04420971
0.04420971
0.04420971
0.04420971
0.04420971
0.04420971
0.04420971
0.04420971
0.04420971
0.04420971
0.04420971
0.04420971
0.04420971
0.04420971
0.04420971
0.04420971
0.04420971
0.04420971
0.04420971
0.04420971
0.04420971
0.04420971
0.04420971
0.04420971
0.04420971
0.04420971
0.04420971
0.04420971
0.04420971
0.04420971
0.04420971
0.04420971
0.04420971
0.04420971
0.04420971
0.04420971
0.04420971
0.04420971
0.04420971
0.04420971
0.04420971
0.04420971
0.04420971
0.04420971
0.04420971
0.04420971
0.04420971
0.04420971
0.04420971
0.04420971
0.04420971
0.04420971
0.04420971
0.04420971
0.04420971
0.04420971
0.04420971
0.04420971
0.04420971
0.04420971
0.04420971
0.04420971
0.04420971
0.04420971
0.04420971
0.04420971
0.04420971
0.04420971
0.04420971
0.04420971
0.04420971
0.04420971
0.04420971
0.04420971
0.04420971
0.04420971
0.04420971
0.04420971
0.04420971
0.04420971
0.04420971
0.04420971
0.04420971
0.04420971
0.04420971
0.04420971
0.04420971
0.04420971
0.04420971
0.04420971
0.04420971
0.04420971
0.04420971
0.04420971
0.04420971
0.04420971
0.04420971
0.04420971
0.04420971
0.04420971
0.04420971
0.04420971
0.04420971
0.04420971
0.04420971
0.04420971
0.04420971
0.04420971
0.04420971
0.04420971
0.04420971
0.04420971
0.04420971
0.04420971
0.04420971
0.04420971
0.04420971
0.04420971
0.04420971
0.04420971
0.04420971
0.04420971
0.04420971
0.04420971
0.04420971
0.04420971
0.04420971
0.04420971
0.04420971
0.04420971
0.04420971
0.04420971
0.04420971
0.04420971
0.04420971
0.04420971
0.04420971
0.04420971
0.04420971
0.04420971
0.04420971
0.04420971
0.04420971
0.04420971
0.04420971
0.04420971
0.04420971
0.04420971
0.04420971
0.04420971
0.04420971
0.04420971
0.04420971
0.04420971
0.04420971
0.04420971
0.04420971
0.04420971
0.04420971
0.04420971
0.04420971
0.04420971
0.04420971
0.04420971
0.04420971
0.04420971
0.04420971
0.04420971
0.04420971
0.04420971
0.04420971
0.04420971
0.04420971
0.04420971
0.04420971
0.04420971
0.04420971
0.04420971
0.04420971
0.04420971
0.04420971
0.04420971
0.04420971
0.04420971
0.04420971
0.04420971
0.04420971
0.04420971
0.04420971
0.04420971
0.04420971
0.04420971
0.04420971
0.04420971
0.04420971
0.04420971
0.04420971
0.04420971
0.04420971
0.04420971
0.04420971
0.04420971
0.04420971
0.04420971
0.04420971
0.04420971
0.04420971
0.04420971
0.04420971
0.04420971
0.04420971
0.04420971
0.04420971
0.04420971
0.04420971
0.04420971
0.04420971
0.04420971
0.04420971
0.04420971
0.04420971
0.04420971
0.04420971
0.04420971
0.04420971
0.04420971
0.04420971
0.04420971
0.04420971
0.04420971
0.04420971
0.04420971
0.04420971
0.04420971
0.04420971
0.04420971
0.04420971
0.04420971
0.04420971
0.04420971
0.04420971
0.04420971
0.04420971
0.04420971
0.04420971
0.04420971
0.04420971
0.04420971
0.04420971
0.04420971
0.04420971
0.04420971
0.04420971
0.04420971
0.04420971
0.04420971
0.04420971
0.04420971
0.04420971
0.04420971
0.04420971
0.04420971
0.04420971
0.04420971
0.04420971
0.04420971
0.04420971
0.04420971
0.04420971
0.04420971
0.04420971
0.04420971
0.04420971
0.04420971
0.04420971
0.04420971
0.04420971
0.04420971
0.04420971
0.04420971
0.04420971
0.04420971
0.04420971
0.04420971
0.04420971
0.04420971
0.04420971
0.04420971
0.04420971
0.04420971
0.04420971
0.04420971
0.04420971
0.04420971
0.04420971
0.04420971
0.04420971
0.04420971
0.04420971
0.04420971
0.04420971
0.04420971
0.04420971
0.04420971
0.04420971
0.04420971
0.04420971
0.04420971
0.04420971
0.04420971
0.04420971
0.04420971
0.04420971
0.04420971
0.04420971
0.04420971
0.04420971
0.04420971
0.04420971
0.04420971
0.04420971
0.04420971
0.04420971
0.04420971
0.04420971
0.04420971
0.04420971
0.04420971
0.04420971
0.04420971
0.04420971
0.04420971
0.04420971
0.04420971
0.04420971
0.04420971
0.04420971
0.04420971
0.04420971
0.04420971
0.04420971


VECTORS d1 FLOAT
0 -0.948002 0.3182645
-0.05735705 -0.9350923 0.3497322
-0.1163042 -0.9175728 0.3801757
-0.1765257 -0.8951695 0.4092803
-0.2376499 -0.8676435 0.4367119
-0.2992488 -0.8348013 0.4621223
-0.3608399 -0.7965051 0.4851537
-0.4218899 -0.7526836 0.5054467
-0.4818206 -0.7033413 0.522647
-0.5400171 -0.6485677 0.5364154
-0.5958379 -0.5885444 0.5464363
-0.6486284 -0.5235495 0.5524283
-0.6977347 -0.4539603 0.5541537
-0.7425202 -0.3802513 0.5514279
-0.7823822 -0.3029905 0.5441276
-0.8167693 -0.2228303 0.5321979
-0.8451974 -0.1404964 0.5156571
-0.8672651 -0.0567718 0.494599
-0.8826665 0.02752014 0.4691935
-0.8912004 0.1115361 0.4396834
-0.8927773 0.1944334 0.4063795
-0.8874214 0.2753913 0.3696525
-0.8752688 0.353631 0.3299235
-0.8565628 0.4284345 0.2876528
-0.8316439 0.4991597 0.243327
-0.8009388 0.5652538 0.1974466
-0.7649456 0.6262619 0.1505132
-0.7242182 0.6818324 0.1030175
-0.6793496 0.7317184 0.05542887
-0.630956 0.7757754 0.008186022
-0.5796606 0.813957 -0.03831036
-0.5260795 0.8463062 -0.08370299
-0.4708094 0.8729467 -0.1276815
-0.4144163 0.8940719 -0.1699843
-0.3574278 0.9099329 -0.2103985
-0.3003268 0.9208273 -0.2487586
-0.2435471 0.9270877 -0.2849442
-0.1874714 0.9290707 -0.3188764
-0.1324307 0.9271472 -0.3505143
-0.07870528 0.9216938 -0.37985
-0.02652667 0.9130853 -0.4069049
0.0239195 0.9016884 -0.4317244
0.07248993 0.8878566 -0.4543742
0.1190798 0.8719264 -0.4749362
0.1636187 0.8542145 -0.4935042
0.2060663 0.835016 -0.5101813
0.2464086 0.8146027 -0.5250764
0.2846539 0.7932234 -0.5383018
0.3208291 0.7711035 -0.5499711
0.3549764 0.7484456 -0.5601972
0.3871505 0.7254306 -0.5690914
0.4174156 0.7022184 -0.5767613
0.4458431 0.6789496 -0.5833107
0.4725097 0.6557465 -0.5888387
0.4974955 0.6327149 -0.5934392
0.5208826 0.609945 -0.5972005
0.5427536 0.5875134 -0.6002054
0.563191 0.565484 -0.6025311
0.582276 0.5439097 -0.604249
0.6000879 0.5228333 -0.6054254
0.6167037 0.5022886 -0.606121
0.6321978 0.4823019 -0.6063917
0.6466414 0.4628924 -0.6062883
0.6601025 0.4440736 -0.6058575
0.6726459 0.4258537 -0.6051414
0.684333 0.4082365 -0.6041782
0.6952218 0.391222 -0.6030025
0.7053668 0.3748069 -0.6016456
0.7148197 0.3589854 -0.6001353
0.7236285 0.3437491 -0.5984968
0.7318385 0.3290879 -0.5967525
0.7394919 0.3149904 -0.5949225
0.7466282 0.3014434 -0.5930246
0.7532842 0.2884334 -0.5910745
0.7594942 0.2759456 -0.5890862
0.7652901 0.263965 -0.587072
0.7707015 0.252476 -0.5850428
0.7757561 0.2414629 -0.5830078
0.7804794 0.2309099 -0.5809755
0.7848951 0.2208012 -0.5789529
0.7890254 0.2111209 -0.5769462
0.7928906 0.2018535 -0.5749606
0.7965097 0.1929835 -0.5730007
0.7999001 0.1844958 -0.5710702
0.8030782 0.1763756 -0.5691723
0.806059 0.1686083 -0.5673096
0.8088563 0.1611799 -0.5654844
0.8114831 0.1540765 -0.5636982
0.8139512 0.1472847 -0.5619525
0.8162718 0.1407916 -0.5602483
0.8184549 0.1345847 -0.5585863
0.82051 0.1286517 -0.5569669
0.8224458 0.1229809 -0.5553906
0.8242703 0.117561 -0.5538573
0.8259911 0.1123811 -0.552367
0.8276149 0.1074307 -0.5509194
0.8291482 0.1026996 -0.5495144
0.8305968 0.09817821 -0.5481515
0.8319661 0.09385712 -0.5468301
0.8332613 0.08972742 -0.5455498
0.8344869 0.08578052 -0.5443099
0.8356473 0.08200823 -0.5431098
0.8367464 0.07840268 -0.5419488
0.837788 0.07495635 -0.5408261
0.8387754 0.07166207 -0.539741
0.839712 0.06851295 -0.5386927
0.8406005 0.06550243 -0.5376804
0.8414438 0.06262426 -0.5367034
0.8422444 0.05987245 -0.5357608
0.8430048 0.05724129 -0.5348517
0.8437271 0.05472533 -0.5339754
0.8444134 0.05231937 -0.533131
0.8450657 0.05001846 -0.5323177
0.8456858 0.04781786 -0.5315346
0.8462753 0.04571306 -0.5307809
0.846836 0.04369974 -0.5300558
0.8473692 0.04177379 -0.5293584
0.8478765 0.03993129 -0.5286879
0.8483591 0.03816849 -0.5280435
0.8488183 0.03648181 -0.5274245
0.8492553 0.03486784 -0.5268299
0.8496711 0.0333233 -0.526259
0.8500669 0.0318451 -0.5257111
0.8504436 0.03043024 -0.5251854
0.8508022 0.02907588 -0.5246811
0.8511435 0.02777931 -0.5241975
0.8514684 0.02653791 -0.523734
0.8517777 0.02534921 -0.5232897
0.8520721 0.02421081 -0.5228641
0.8523524 0.02312046 -0.5224565
0.8526192 0.02207597 -0.5220663
0.8528731 0.02107525 -0.5216927
0.8531148 0.02011632 -0.5213353
0.8533448 0.01919725 -0.5209934
0.8535637 0.01831623 -0.5206664
0.853772 0.01747149 -0.5203539
0.8539701 0.01666136 -0.5200553
0.8541585 0.01588423 -0.5197701
0.8543377 0.01513856 -0.5194978
0.8545081 0.01442286 -0.5192379
0.85467 0.01373571 -0.5189899
0.8548238 0.01307575 -0.5187536
0.8549699 0.01244168 -0.5185283
0.8551087 0.01183223 -0.5183137
0.8552403 0.01124619 -0.5181095
0.8553652 0.01068241 -0.5179153
0.8554836 0.01013977 -0.5177307
0.8555957 0.009617184 -0.5175553
0.8557018 0.009113631 -0.5173889
0.8558022 0.008628108 -0.5172312
0.8558971 0.008159654 -0.5170818
0.8559866 0.007707342 -0.5169405
0.856071 0.007270276 -0.5168071
0.8561505 0.006847591 -0.5166812
0.8562252 0.006438452 -0.5165627
0.8562952 0.006042047 -0.5164513
0.8563609 0.005657593 -0.5163468
0.8564222 0.005284329 -0.5162491
0.8564794 0.004921517 -0.5161578
0.8565324 0.004568439 -0.516073
0.8565816 0.004224397 -0.5159943
0.8566269 0.003888709 -0.5159217
0.8566685 0.003560712 -0.515855
0.8567064 0.003239757 -0.5157941
0.8567408 0.00292521 -0.5157389
0.8567717 0.002616447 -0.5156892
0.8567992 0.00231286 -0.5156451
0.8568233 0.002013846 -0.5156063
0.856844 0.001718815 -0.5155728
0.8568615 0.001427183 -0.5155446
0.8568758 0.001138373 -0.5155216
0.8568869 0.0008518154 -0.5155038
0.8568948 0.0005669418 -0.5154911
0.8568995 0.0002831895 -0.5154834
0.8569011 -2.788227e-09 -0.5154809
0.8568995 -0.0002831951 -0.5154834
0.8568948 -0.0005669474 -0.5154911
0.8568869 -0.0008518209 -0.5155038
0.8568758 -0.001138379 -0.5155216
0.8568615 -0.001427188 -0.5155446
0.856844 -0.00171882 -0.5155728
0.8568233 -0.002013851 -0.5156063
0.8567992 -0.002312865 -0.5156451
0.8567717 -0.002616453 -0.5156892
0.8567408 -0.002925215 -0.5157389
0.8567064 -0.003239763 -0.5157941
0.8566685 -0.003560718 -0.515855
0.8566269 -0.003888714 -0.5159217
0.8565816 -0.004224402 -0.5159943
0.8565324 -0.004568445 -0.516073
0.8564794 -0.004921523 -0.5161578
0.8564222 -0.005284335 -0.5162491
0.8563609 -0.005657599 -0.5163468
0.8562952 -0.006042052 -0.5164513
0.8562252 -0.006438457 -0.5165627
0.8561505 -0.006847597 -0.5166812
0.856071 -0.007270281 -0.5168071
0.8559866 -0.007707347 -0.5169405
0.8558971 -0.008159659 -0.5170818
0.8558022 -0.008628113 -0.5172312
0.8557018 -0.009113636 -0.5173889
0.8555957 -0.00961719 -0.5175553
0.8554836 -0.01013977 -0.5177307
0.8553652 -0.01068241 -0.5179153
0.8552403 -0.01124619 -0.5181095
0.8551087 -0.01183223 -0.5183137
0.8549699 -0.01244168 -0.5185283
0.8548238 -0.01307576 -0.5187536
0.85467 -0.01373571 -0.5189899
0.8545081 -0.01442286 -0.5192379
0.8543377 -0.01513856 -0.5194978
0.8541585 -0.01588424 -0.5197701