# vtk DataFile Version 2.0
Written badly by Kevin Korner
ASCII
DATASET POLYDATA
POINTS 350 FLOAT
0 0 0
0.00286533 0 0
0.005729827 -9.475278e-06 6.840654e-05
0.00859182 -2.675979e-05 0.0002055516
0.01144963 -5.01662e-05 0.0004116655
0.01430158 -7.79898e-05 0.000686876
0.01714598 -0.0001085125 0.001031207
0.01998116 -0.0001400072 0.001444578
0.02280545 -0.0001707413 0.001926804
0.0256172 -0.0001989818 0.002477596
0.02841478 -0.0002229987 0.003096561
0.03119656 -0.0002410697 0.003783204
0.03396096 -0.0002514841 0.004536928
0.03670641 -0.000252547 0.005357037
0.0394314 -0.0002425833 0.006242735
0.04213442 -0.0002199416 0.007193136
0.04481403 -0.0001829982 0.008207256
0.04746882 -0.0001301605 0.009284027
0.05009742 -5.987083e-05 0.01042229
0.05269851 2.939033e-05 0.01162081
0.05527084 0.0001391012 0.01287827
0.05781319 0.0002706956 0.01419327
0.06032442 0.0004255603 0.01556436
0.06280341 0.0006050322 0.01699002
0.06524914 0.0008103963 0.01846865
0.06766063 0.001042883 0.01999861
0.07003696 0.001303668 0.02157821
0.07237729 0.001593867 0.02320572
0.07468082 0.001914539 0.02487935
0.07694683 0.00226668 0.02659728
0.07917466 0.002651229 0.02835768
0.08136372 0.003069059 0.03015867
0.08351347 0.003520982 0.03199835
0.08562345 0.004007749 0.03387483
0.08769326 0.004530047 0.03578617
0.08972254 0.005088501 0.03773046
0.09171102 0.005683674 0.03970576
0.09365848 0.006316068 0.04171016
0.09556475 0.006986125 0.04374173
0.09742972 0.007694227 0.04579856
0.09925336 0.008440697 0.04787877
0.1010357 0.009225802 0.04998047
0.1027767 0.01004975 0.05210181
0.1044765 0.0109127 0.05424097
0.1061353 0.01181476 0.05639615
0.1077533 0.01275598 0.05856557
0.1093307 0.01373636 0.0607475
0.1108677 0.01475586 0.06294024
0.1123648 0.0158144 0.06514212
0.1138223 0.01691183 0.06735153
0.1152406 0.01804799 0.06956688
0.1166201 0.01922267 0.07178664
0.1179612 0.02043562 0.07400931
0.1192645 0.02168655 0.07623344
0.1205304 0.02297515 0.07845763
0.1217595 0.02430106 0.08068053
0.1229524 0.02566393 0.08290083
0.1241096 0.02706333 0.08511728
0.1252318 0.02849884 0.08732866
0.1263195 0.02997002 0.08953381
0.1273733 0.03147638 0.09173161
0.128394 0.03301745 0.09392102
0.1293821 0.03459271 0.09610099
0.1303383 0.03620164 0.09827058
0.1312633 0.0378437 0.1004289
0.1321578 0.03951834 0.1025749
0.1330223 0.04122501 0.104708
0.1338576 0.04296312 0.1068273
0.1346645 0.04473212 0.108932
0.1354434 0.04653141 0.1110214
0.1361952 0.04836041 0.113095
0.1369205 0.05021852 0.1151521
0.13762 0.05210516 0.117192
0.1382943 0.05401972 0.1192144
0.1389441 0.05596162 0.1212186
0.1395701 0.05793025 0.1232042
0.1401729 0.05992502 0.1251708
0.1407532 0.06194535 0.1271181
0.1413115 0.06399064 0.1290455
0.1418486 0.06606031 0.1309529
0.142365 0.06815379 0.1328399
0.1428614 0.0702705 0.1347063
0.1433383 0.07240986 0.1365517
0.1437964 0.07457133 0.1383761
0.1442362 0.07675435 0.1401792
0.1446583 0.07895837 0.1419609
0.1450632 0.08118285 0.1437209
0.1454516 0.08342727 0.1454593
0.1458238 0.08569109 0.1471759
0.1461805 0.08797381 0.1488706
0.1465222 0.09027493 0.1505434
0.1468493 0.09259394 0.1521942
0.1471624 0.09493037 0.1538231
0.1474619 0.09728373 0.15543
0.1477484 0.09965357 0.1570149
0.1480221 0.1020394 0.1585778
0.1482837 0.1044408 0.1601189
0.1485334 0.1068574 0.1616381
0.1487718 0.1092887 0.1631355
0.1489993 0.1117342 0.1646112
0.1492162 0.1141936 0.1660653
0.1494229 0.1166666 0.1674978
0.1496198 0.1191526 0.1689088
0.1498072 0.1216513 0.1702985
0.1499856 0.1241624 0.1716669
0.1501552 0.1266856 0.1730143
0.1503164 0.1292203 0.1743406
0.1504695 0.1317664 0.175646
0.1506148 0.1343235 0.1769307
0.1507526 0.1368912 0.1781947
0.1508833 0.1394693 0.1794383
0.151007 0.1420575 0.1806615
0.151124 0.1446554 0.1818645
0.1512347 0.1472628 0.1830474
0.1513393 0.1498794 0.1842104
0.151438 0.152505 0.1853535
0.151531 0.1551392 0.186477
0.1516187 0.1577819 0.187581
0.1517011 0.1604328 0.1886655
0.1517786 0.1630916 0.1897307
0.1518513 0.1657581 0.1907768
0.1519195 0.1684322 0.1918039
0.1519833 0.1711136 0.192812
0.1520429 0.173802 0.1938013
0.1520985 0.1764974 0.1947719
0.1521502 0.1791995 0.1957239
0.1521983 0.181908 0.1966574
0.1522429 0.1846229 0.1975725
0.1522842 0.187344 0.1984693
0.1523223 0.190071 0.1993479
0.1523573 0.1928039 0.2002082
0.1523895 0.1955425 0.2010505
0.1524189 0.1982865 0.2018747
0.1524456 0.201036 0.202681
0.1524699 0.2037906 0.2034693
0.1524917 0.2065504 0.2042397
0.1525114 0.2093151 0.2049922
0.1525288 0.2120845 0.2057268
0.1525443 0.2148587 0.2064436
0.1525579 0.2176375 0.2071426
0.1525696 0.2204206 0.2078238
0.1525797 0.2232081 0.2084871
0.1525882 0.2259998 0.2091325
0.1525951 0.2287955 0.20976
0.1526007 0.2315953 0.2103696
0.152605 0.2343988 0.2109613
0.1526081 0.2372062 0.2115349
0.15261 0.2400171 0.2120905
0.152611 0.2428316 0.2126279
0.152611 0.2456495 0.213147
0.1526101 0.2484707 0.2136479
0.1526085 0.2512951 0.2141304
0.1526062 0.2541226 0.2145943
0.1526033 0.2569532 0.2150397
0.1525998 0.2597865 0.2154663
0.1525959 0.2626227 0.2158741
0.1525917 0.2654615 0.2162629
0.1525871 0.2683029 0.2166325
0.1525823 0.2711467 0.2169829
0.1525774 0.2739929 0.2173139
0.1525724 0.2768412 0.2176254
0.1525673 0.2796917 0.2179171
0.1525624 0.2825441 0.2181889
0.1525575 0.2853983 0.2184406
0.1525528 0.2882543 0.2186722
0.1525483 0.2911118 0.2188833
0.1525441 0.2939708 0.2190739
0.1525402 0.2968311 0.2192438
0.1525367 0.2996925 0.2193929
0.1525336 0.302555 0.2195209
0.152531 0.3054183 0.2196279
0.1525289 0.3082824 0.2197135
0.1525272 0.311147 0.2197779
0.1525262 0.314012 0.2198208
0.1525256 0.3168772 0.2198423
0.1525256 0.3197426 0.2198423
0.1525262 0.3226078 0.2198208
0.1525272 0.3254728 0.2197779
0.1525289 0.3283374 0.2197135
0.152531 0.3312015 0.2196279
0.1525336 0.3340648 0.2195209
0.1525367 0.3369273 0.2193929
0.1525402 0.3397887 0.2192438
0.1525441 0.342649 0.2190739
0.1525483 0.345508 0.2188833
0.1525528 0.3483655 0.2186722
0.1525575 0.3512215 0.2184406
0.1525624 0.3540757 0.2181889
0.1525673 0.3569281 0.2179171
0.1525724 0.3597785 0.2176254
0.1525774 0.3626269 0.2173139
0.1525823 0.365473 0.2169829
0.1525871 0.3683169 0.2166325
0.1525917 0.3711582 0.2162629
0.1525959 0.3739971 0.2158741
0.1525998 0.3768332 0.2154663
0.1526033 0.3796666 0.2150397
0.1526062 0.3824971 0.2145943
0.1526085 0.3853246 0.2141304
0.1526101 0.3881491 0.2136479
0.152611 0.3909703 0.213147
0.152611 0.3937882 0.2126279
0.15261 0.3966027 0.2120905
0.1526081 0.3994136 0.2115349
0.152605 0.4022209 0.2109613
0.1526007 0.4050245 0.2103696
0.1525951 0.4078242 0.20976
0.1525882 0.41062 0.2091325
0.1525797 0.4134117 0.2084871
0.1525696 0.4161992 0.2078238
0.1525579 0.4189823 0.2071426
0.1525443 0.4217611 0.2064436
0.1525288 0.4245352 0.2057268
0.1525114 0.4273047 0.2049922
0.1524917 0.4300694 0.2042397
0.1524699 0.4328291 0.2034693
0.1524456 0.4355838 0.202681
0.1524189 0.4383332 0.2018747
0.1523895 0.4410773 0.2010505
0.1523573 0.4438158 0.2002082
0.1523223 0.4465487 0.1993479
0.1522842 0.4492758 0.1984693
0.1522429 0.4519968 0.1975725
0.1521983 0.4547117 0.1966574
0.1521502 0.4574203 0.1957239
0.1520985 0.4601224 0.1947719
0.1520429 0.4628177 0.1938013
0.1519833 0.4655062 0.192812
0.1519195 0.4681876 0.1918039
0.1518513 0.4708616 0.1907768
0.1517786 0.4735282 0.1897307
0.1517011 0.476187 0.1886655
0.1516187 0.4788379 0.187581
0.151531 0.4814806 0.186477
0.151438 0.4841148 0.1853535
0.1513393 0.4867404 0.1842104
0.1512347 0.489357 0.1830474
0.151124 0.4919644 0.1818645
0.151007 0.4945623 0.1806615
0.1508833 0.4971505 0.1794383
0.1507526 0.4997286 0.1781947
0.1506148 0.5022963 0.1769307
0.1504695 0.5048534 0.175646
0.1503164 0.5073995 0.1743406
0.1501552 0.5099342 0.1730143
0.1499856 0.5124573 0.1716669
0.1498072 0.5149684 0.1702985
0.1496198 0.5174672 0.1689088
0.1494229 0.5199532 0.1674978
0.1492162 0.5224261 0.1660653
0.1489993 0.5248856 0.1646112
0.1487718 0.5273311 0.1631355
0.1485334 0.5297624 0.1616381
0.1482837 0.5321789 0.1601189
0.1480221 0.5345804 0.1585778
0.1477484 0.5369662 0.1570149
0.1474619 0.539336 0.15543
0.1471624 0.5416894 0.1538231
0.1468493 0.5440258 0.1521942
0.1465222 0.5463448 0.1505434
0.1461805 0.548646 0.1488706
0.1458238 0.5509287 0.1471759
0.1454516 0.5531925 0.1454593
0.1450632 0.5554369 0.1437209
0.1446583 0.5576614 0.1419609
0.1442362 0.5598654 0.1401792
0.1437964 0.5620484 0.1383761
0.1433383 0.5642099 0.1365517
0.1428614 0.5663493 0.1347063
0.142365 0.568466 0.1328399
0.1418486 0.5705595 0.1309529
0.1413115 0.5726291 0.1290455
0.1407532 0.5746744 0.1271181
0.1401729 0.5766948 0.1251708
0.1395701 0.5786895 0.1232042
0.1389441 0.5806582 0.1212186
0.1382943 0.5826001 0.1192144
0.13762 0.5845146 0.117192
0.1369205 0.5864012 0.1151521
0.1361952 0.5882594 0.113095
0.1354434 0.5900884 0.1110214
0.1346645 0.5918877 0.108932
0.1338576 0.5936566 0.1068273
0.1330223 0.5953948 0.104708
0.1321578 0.5971014 0.1025749
0.1312633 0.5987761 0.1004289
0.1303383 0.6004181 0.09827058
0.1293821 0.6020271 0.09610099
0.128394 0.6036023 0.09392102
0.1273733 0.6051434 0.09173161
0.1263195 0.6066498 0.08953381
0.1252318 0.6081209 0.08732866
0.1241096 0.6095564 0.08511728
0.1229524 0.6109558 0.08290083
0.1217595 0.6123187 0.08068053
0.1205304 0.6136446 0.07845763
0.1192645 0.6149332 0.07623344
0.1179612 0.6161842 0.07400931
0.1166201 0.6173971 0.07178664
0.1152406 0.6185718 0.06956688
0.1138223 0.6197079 0.06735153
0.1123648 0.6208054 0.06514212
0.1108677 0.6218639 0.06294024
0.1093307 0.6228834 0.0607475
0.1077533 0.6238638 0.05856557
0.1061353 0.624805 0.05639615
0.1044765 0.6257071 0.05424097
0.1027767 0.62657 0.05210181
0.1010357 0.627394 0.04998047
0.09925336 0.6281791 0.04787877
0.09742972 0.6289255 0.04579856
0.09556475 0.6296336 0.04374173
0.09365848 0.6303037 0.04171016
0.09171102 0.6309361 0.03970576
0.08972254 0.6315313 0.03773046
0.08769326 0.6320897 0.03578617
0.08562345 0.632612 0.03387483
0.08351347 0.6330988 0.03199835
0.08136372 0.6335507 0.03015867
0.07917466 0.6339685 0.02835768
0.07694683 0.6343531 0.02659728
0.07468082 0.6347052 0.02487935
0.07237729 0.6350259 0.02320572
0.07003696 0.6353161 0.02157821
0.06766063 0.6355769 0.01999861
0.06524914 0.6358094 0.01846865
0.06280341 0.6360147 0.01699002
0.06032442 0.6361942 0.01556437
0.05781319 0.6363491 0.01419327
0.05527084 0.6364807 0.01287827
0.05269851 0.6365904 0.01162081
0.05009742 0.6366796 0.01042229
0.04746882 0.6367499 0.009284027
0.04481403 0.6368028 0.008207257
0.04213442 0.6368397 0.007193136
0.0394314 0.6368624 0.006242735
0.03670641 0.6368723 0.005357037
0.03396096 0.6368713 0.004536928
0.03119656 0.6368608 0.003783204
0.02841478 0.6368428 0.003096561
0.0256172 0.6368188 0.002477596
0.02280545 0.6367905 0.001926804
0.01998116 0.6367598 0.001444578
0.01714598 0.6367283 0.001031207
0.01430158 0.6366978 0.000686876
0.01144963 0.6366699 0.0004116655
0.00859182 0.6366465 0.0002055516
0.005729827 0.6366292 6.840654e-05
0.00286533 0.6366198 0
0 0.6366198 0

LINES 349 1047
2 0 1
2 1 2
2 2 3
2 3 4
2 4 5
2 5 6
2 6 7
2 7 8
2 8 9
2 9 10
2 10 11
2 11 12
2 12 13
2 13 14
2 14 15
2 15 16
2 16 17
2 17 18
2 18 19
2 19 20
2 20 21
2 21 22
2 22 23
2 23 24
2 24 25
2 25 26
2 26 27
2 27 28
2 28 29
2 29 30
2 30 31
2 31 32
2 32 33
2 33 34
2 34 35
2 35 36
2 36 37
2 37 38
2 38 39
2 39 40
2 40 41
2 41 42
2 42 43
2 43 44
2 44 45
2 45 46
2 46 47
2 47 48
2 48 49
2 49 50
2 50 51
2 51 52
2 52 53
2 53 54
2 54 55
2 55 56
2 56 57
2 57 58
2 58 59
2 59 60
2 60 61
2 61 62
2 62 63
2 63 64
2 64 65
2 65 66
2 66 67
2 67 68
2 68 69
2 69 70
2 70 71
2 71 72
2 72 73
2 73 74
2 74 75
2 75 76
2 76 77
2 77 78
2 78 79
2 79 80
2 80 81
2 81 82
2 82 83
2 83 84
2 84 85
2 85 86
2 86 87
2 87 88
2 88 89
2 89 90
2 90 91
2 91 92
2 92 93
2 93 94
2 94 95
2 95 96
2 96 97
2 97 98
2 98 99
2 99 100
2 100 101
2 101 102
2 102 103
2 103 104
2 104 105
2 105 106
2 106 107
2 107 108
2 108 109
2 109 110
2 110 111
2 111 112
2 112 113
2 113 114
2 114 115
2 115 116
2 116 117
2 117 118
2 118 119
2 119 120
2 120 121
2 121 122
2 122 123
2 123 124
2 124 125
2 125 126
2 126 127
2 127 128
2 128 129
2 129 130
2 130 131
2 131 132
2 132 133
2 133 134
2 134 135
2 135 136
2 136 137
2 137 138
2 138 139
2 139 140
2 140 141
2 141 142
2 142 143
2 143 144
2 144 145
2 145 146
2 146 147
2 147 148
2 148 149
2 149 150
2 150 151
2 151 152
2 152 153
2 153 154
2 154 155
2 155 156
2 156 157
2 157 158
2 158 159
2 159 160
2 160 161
2 161 162
2 162 163
2 163 164
2 164 165
2 165 166
2 166 167
2 167 168
2 168 169
2 169 170
2 170 171
2 171 172
2 172 173
2 173 174
2 174 175
2 175 176
2 176 177
2 177 178
2 178 179
2 179 180
2 180 181
2 181 182
2 182 183
2 183 184
2 184 185
2 185 186
2 186 187
2 187 188
2 188 189
2 189 190
2 190 191
2 191 192
2 192 193
2 193 194
2 194 195
2 195 196
2 196 197
2 197 198
2 198 199
2 199 200
2 200 201
2 201 202
2 202 203
2 203 204
2 204 205
2 205 206
2 206 207
2 207 208
2 208 209
2 209 210
2 210 211
2 211 212
2 212 213
2 213 214
2 214 215
2 215 216
2 216 217
2 217 218
2 218 219
2 219 220
2 220 221
2 221 222
2 222 223
2 223 224
2 224 225
2 225 226
2 226 227
2 227 228
2 228 229
2 229 230
2 230 231
2 231 232
2 232 233
2 233 234
2 234 235
2 235 236
2 236 237
2 237 238
2 238 239
2 239 240
2 240 241
2 241 242
2 242 243
2 243 244
2 244 245
2 245 246
2 246 247
2 247 248
2 248 249
2 249 250
2 250 251
2 251 252
2 252 253
2 253 254
2 254 255
2 255 256
2 256 257
2 257 258
2 258 259
2 259 260
2 260 261
2 261 262
2 262 263
2 263 264
2 264 265
2 265 266
2 266 267
2 267 268
2 268 269
2 269 270
2 270 271
2 271 272
2 272 273
2 273 274
2 274 275
2 275 276
2 276 277
2 277 278
2 278 279
2 279 280
2 280 281
2 281 282
2 282 283
2 283 284
2 284 285
2 285 286
2 286 287
2 287 288
2 288 289
2 289 290
2 290 291
2 291 292
2 292 293
2 293 294
2 294 295
2 295 296
2 296 297
2 297 298
2 298 299
2 299 300
2 300 301
2 301 302
2 302 303
2 303 304
2 304 305
2 305 306
2 306 307
2 307 308
2 308 309
2 309 310
2 310 311
2 311 312
2 312 313
2 313 314
2 314 315
2 315 316
2 316 317
2 317 318
2 318 319
2 319 320
2 320 321
2 321 322
2 322 323
2 323 324
2 324 325
2 325 326
2 326 327
2 327 328
2 328 329
2 329 330
2 330 331
2 331 332
2 332 333
2 333 334
2 334 335
2 335 336
2 336 337
2 337 338
2 338 339
2 339 340
2 340 341
2 341 342
2 342 343
2 343 344
2 344 345
2 345 346
2 346 347
2 347 348
2 348 349


POINT_DATA 350
SCALARS a FLOAT 1
LOOKUP_TABLE default
0.0005894628
0.0005894628
0.0005894628
0.0005894628
0.0005894628
0.0005894628
0.0005894628
0.0005894628
0.0005894628
0.0005894628
0.0005894628
0.0005894628
0.0005894628
0.0005894628
0.0005894628
0.0005894628
0.0005894628
0.0005894628
0.0005894628
0.0005894628
0.0005894628
0.0005894628
0.0005894628
0.0005894628
0.0005894628
0.0005894628
0.0005894628
0.0005894628
0.0005894628
0.0005894628
0.0005894628
0.0005894628
0.0005894628
0.0005894628
0.0005894628
0.0005894628
0.0005894628
0.0005894628
0.0005894628
0.0005894628
0.0005894628
0.0005894628
0.0005894628
0.0005894628
0.0005894628
0.0005894628
0.0005894628
0.0005894628
0.0005894628
0.0005894628
0.0005894628
0.0005894628
0.0005894628
0.0005894628
0.0005894628
0.0005894628
0.0005894628
0.0005894628
0.0005894628
0.0005894628
0.0005894628
0.0005894628
0.0005894628
0.0005894628
0.0005894628
0.0005894628
0.0005894628
0.0005894628
0.0005894628
0.0005894628
0.0005894628
0.0005894628
0.0005894628
0.0005894628
0.0005894628
0.0005894628
0.0005894628
0.0005894628
0.0005894628
0.0005894628
0.0005894628
0.0005894628
0.0005894628
0.0005894628
0.0005894628
0.0005894628
0.0005894628
0.0005894628
0.0005894628
0.0005894628
0.0005894628
0.0005894628
0.0005894628
0.0005894628
0.0005894628
0.0005894628
0.0005894628
0.0005894628
0.0005894628
0.0005894628
0.0005894628
0.0005894628
0.0005894628
0.0005894628
0.0005894628
0.0005894628
0.0005894628
0.0005894628
0.0005894628
0.0005894628
0.0005894628
0.0005894628
0.0005894628
0.0005894628
0.0005894628
0.0005894628
0.0005894628
0.0005894628
0.0005894628
0.0005894628
0.0005894628
0.0005894628
0.0005894628
0.0005894628
0.0005894628
0.0005894628
0.0005894628
0.0005894628
0.0005894628
0.0005894628
0.0005894628
0.0005894628
0.0005894628
0.0005894628
0.0005894628
0.0005894628
0.0005894628
0.0005894628
0.0005894628
0.0005894628
0.0005894628
0.0005894628
0.0005894628
0.0005894628
0.0005894628
0.0005894628
0.0005894628
0.0005894628
0.0005894628
0.0005894628
0.0005894628
0.0005894628
0.0005894628
0.0005894628
0.0005894628
0.0005894628
0.0005894628
0.0005894628
0.0005894628
0.0005894628
0.0005894628
0.0005894628
0.0005894628
0.0005894628
0.0005894628
0.0005894628
0.0005894628
0.0005894628
0.0005894628
0.0005894628
0.0005894628
0.0005894628
0.0005894628
0.0005894628
0.0005894628
0.0005894628
0.0005894628
0.0005894628
0.0005894628
0.0005894628
0.0005894628
0.0005894628
0.0005894628
0.0005894628
0.0005894628
0.0005894628
0.0005894628
0.0005894628
0.0005894628
0.0005894628
0.0005894628
0.0005894628
0.0005894628
0.0005894628
0.0005894628
0.0005894628
0.0005894628
0.0005894628
0.0005894628
0.0005894628
0.0005894628
0.0005894628
0.0005894628
0.0005894628
0.0005894628
0.0005894628
0.0005894628
0.0005894628
0.0005894628
0.0005894628
0.0005894628
0.0005894628
0.0005894628
0.0005894628
0.0005894628
0.0005894628
0.0005894628
0.0005894628
0.0005894628
0.0005894628
0.0005894628
0.0005894628
0.0005894628
0.0005894628
0.0005894628
0.0005894628
0.0005894628
0.0005894628
0.0005894628
0.0005894628
0.0005894628
0.0005894628
0.0005894628
0.0005894628
0.0005894628
0.0005894628
0.0005894628
0.0005894628
0.0005894628
0.0005894628
0.0005894628
0.0005894628
0.0005894628
0.0005894628
0.0005894628
0.0005894628
0.0005894628
0.0005894628
0.0005894628
0.0005894628
0.0005894628
0.0005894628
0.0005894628
0.0005894628
0.0005894628
0.0005894628
0.0005894628
0.0005894628
0.0005894628
0.0005894628
0.0005894628
0.0005894628
0.0005894628
0.0005894628
0.0005894628
0.0005894628
0.0005894628
0.0005894628
0.0005894628
0.0005894628
0.0005894628
0.0005894628
0.0005894628
0.0005894628
0.0005894628
0.0005894628
0.0005894628
0.0005894628
0.0005894628
0.0005894628
0.0005894628
0.0005894628
0.0005894628
0.0005894628
0.0005894628
0.0005894628
0.0005894628
0.0005894628
0.0005894628
0.0005894628
0.0005894628
0.0005894628
0.0005894628
0.0005894628
0.0005894628
0.0005894628
0.0005894628
0.0005894628
0.0005894628
0.0005894628
0.0005894628
0.0005894628
0.0005894628
0.0005894628
0.0005894628
0.0005894628
0.0005894628
0.0005894628
0.0005894628
0.0005894628
0.0005894628
0.0005894628
0.0005894628
0.0005894628
0.0005894628
0.0005894628
0.0005894628
0.0005894628
0.0005894628
0.0005894628
0.0005894628
0.0005894628
0.0005894628
0.0005894628
0.0005894628
0.0005894628
0.0005894628
0.0005894628
0.0005894628
0.0005894628
0.0005894628
0.0005894628
0.0005894628
0.0005894628
0.0005894628
0.0005894628
0.0005894628
0.0005894628
0.0005894628
0.0005894628
0.0005894628
0.0005894628
0.0005894628
0.0005894628
0.0005894628
0.0005894628
0.0005894628
0.0005894628
0.0005894628
0.0005894628


SCALARS b FLOAT 1
LOOKUP_TABLE default
0.04420971
0.04420971
0.04420971
0.04420971
0.04420971
0.04420971
0.04420971
0.04420971
0.04420971
0.04420971
0.04420971
0.04420971
0.04420971
0.04420971
0.04420971
0.04420971
0.04420971
0.04420971
0.04420971
0.04420971
0.04420971
0.04420971
0.04420971
0.04420971
0.04420971
0.04420971
0.04420971
0.04420971
0.04420971
0.04420971
0.04420971
0.04420971
0.04420971
0.04420971
0.04420971
0.04420971
0.04420971
0.04420971
0.04420971
0.04420971
0.04420971
0.04420971
0.04420971
0.04420971
0.04420971
0.04420971
0.04420971
0.04420971
0.04420971
0.04420971
0.04420971
0.04420971
0.04420971
0.04420971
0.04420971
0.04420971
0.04420971
0.04420971
0.04420971
0.04420971
0.04420971
0.04420971
0.04420971
0.04420971
0.04420971
0.04420971
0.04420971
0.04420971
0.04420971
0.04420971
0.04420971
0.04420971
0.04420971
0.04420971
0.04420971
0.04420971
0.04420971
0.04420971
0.04420971
0.04420971
0.04420971
0.04420971
0.04420971
0.04420971
0.04420971
0.04420971
0.04420971
0.04420971
0.04420971
0.04420971
0.04420971
0.04420971
0.04420971
0.04420971
0.04420971
0.04420971
0.04420971
0.04420971
0.04420971
0.04420971
0.04420971
0.04420971
0.04420971
0.04420971
0.04420971
0.04420971
0.04420971
0.04420971
0.04420971
0.04420971
0.04420971
0.04420971
0.04420971
0.04420971
0.04420971
0.04420971
0.04420971
0.04420971
0.04420971
0.04420971
0.04420971
0.04420971
0.04420971
0.04420971
0.04420971
0.04420971
0.04420971
0.04420971
0.04420971
0.04420971
0.04420971
0.04420971
0.04420971
0.04420971
0.04420971
0.04420971
0.04420971
0.04420971
0.04420971
0.04420971
0.04420971
0.04420971
0.04420971
0.04420971
0.04420971
0.04420971
0.04420971
0.04420971
0.04420971
0.04420971
0.04420971
0.04420971
0.04420971
0.04420971
0.04420971
0.04420971
0.04420971
0.04420971
0.04420971
0.04420971
0.04420971
0.04420971
0.04420971
0.04420971
0.04420971
0.04420971
0.04420971
0.04420971
0.04420971
0.04420971
0.04420971
0.04420971
0.04420971
0.04420971
0.04420971
0.04420971
0.04420971
0.04420971
0.04420971
0.04420971
0.04420971
0.04420971
0.04420971
0.04420971
0.04420971
0.04420971
0.04420971
0.04420971
0.04420971
0.04420971
0.04420971
0.04420971
0.04420971
0.04420971
0.04420971
0.04420971
0.04420971
0.04420971
0.04420971
0.04420971
0.04420971
0.04420971
0.04420971
0.04420971
0.04420971
0.04420971
0.04420971
0.04420971
0.04420971
0.04420971
0.04420971
0.04420971
0.04420971
0.04420971
0.04420971
0.04420971
0.04420971
0.04420971
0.04420971
0.04420971
0.04420971
0.04420971
0.04420971
0.04420971
0.04420971
0.04420971
0.04420971
0.04420971
0.04420971
0.04420971
0.04420971
0.04420971
0.04420971
0.04420971
0.04420971
0.04420971
0.04420971
0.04420971
0.04420971
0.04420971
0.04420971
0.04420971
0.04420971
0.04420971
0.04420971
0.04420971
0.04420971
0.04420971
0.04420971
0.04420971
0.04420971
0.04420971
0.04420971
0.04420971
0.04420971
0.04420971
0.04420971
0.04420971
0.04420971
0.04420971
0.04420971
0.04420971
0.04420971
0.04420971
0.04420971
0.04420971
0.04420971
0.04420971
0.04420971
0.04420971
0.04420971
0.04420971
0.04420971
0.04420971
0.04420971
0.04420971
0.04420971
0.04420971
0.04420971
0.04420971
0.04420971
0.04420971
0.04420971
0.04420971
0.04420971
0.04420971
0.04420971
0.04420971
0.04420971
0.04420971
0.04420971
0.04420971
0.04420971
0.04420971
0.04420971
0.04420971
0.04420971
0.04420971
0.04420971
0.04420971
0.04420971
0.04420971
0.04420971
0.04420971
0.04420971
0.04420971
0.04420971
0.04420971
0.04420971
0.04420971
0.04420971
0.04420971
0.04420971
0.04420971
0.04420971
0.04420971
0.04420971
0.04420971
0.04420971
0.04420971
0.04420971
0.04420971
0.04420971
0.04420971
0.04420971
0.04420971
0.04420971
0.04420971
0.04420971
0.04420971
0.04420971
0.04420971
0.04420971
0.04420971
0.04420971
0.04420971
0.04420971
0.04420971
0.04420971
0.04420971
0.04420971
0.04420971
0.04420971
0.04420971
0.04420971
0.04420971
0.04420971
0.04420971
0.04420971
0.04420971


VECTORS d1 FLOAT
0 -0.1492937 0.9887929
-0.02410001 -0.1250108 0.9918626
-0.04822775 -0.1005432 0.9937631
-0.07234714 -0.07592631 0.9944853
-0.09642187 -0.05119613 0.994023
-0.1204155 -0.02638907 0.9923728
-0.1442918 -0.001541938 0.989534
-0.1680144 0.02330827 0.9855089
-0.1915475 0.04812447 0.9803028
-0.2148557 0.07286963 0.9739235
-0.2379041 0.09750693 0.9663819
-0.2606586 0.1219999 0.9576916
-0.2830857 0.1463124 0.9478688
-0.305153 0.1704091 0.9369324
-0.3268293 0.1942552 0.9249041
-0.3480842 0.2178169 0.9118076
-0.3688889 0.2410612 0.8976694
-0.3892158 0.2639563 0.8825181
-0.4090387 0.2864715 0.8663841
-0.4283329 0.3085775 0.8493002
-0.4470754 0.330246 0.8313009
-0.4652448 0.3514507 0.8124221
-0.4828214 0.3721662 0.7927016
-0.499787 0.3923691 0.7721784
-0.5161255 0.4120376 0.7508925
-0.5318223 0.4311513 0.7288852
-0.5468648 0.4496917 0.7061985
-0.5612421 0.4676419 0.682875
-0.574945 0.484987 0.6589582
-0.5879661 0.5017136 0.6344914
-0.6002998 0.5178101 0.6095185
-0.6119423 0.5332667 0.5840833
-0.6228912 0.5480752 0.5582295
-0.633146 0.5622292 0.5320005
-0.6427076 0.5757239 0.5054393
-0.6515786 0.5885562 0.4785885
-0.6597628 0.6007245 0.4514899
-0.6672656 0.6122288 0.4241846
-0.6740937 0.6230703 0.3967128
-0.680255 0.633252 0.3691139
-0.6857585 0.6427781 0.3414258
-0.6906146 0.6516539 0.3136858
-0.6948343 0.659886 0.2859297
-0.6984299 0.6674823 0.2581919
-0.7014144 0.6744516 0.2305058
-0.7038016 0.6808037 0.2029031
-0.705606 0.6865493 0.1754145
-0.7068429 0.6916999 0.1480687
-0.7075278 0.6962681 0.1208935
-0.7076769 0.7002666 0.09391486
-0.707307 0.7037093 0.06715739
-0.7064348 0.7066101 0.0406442
-0.7050777 0.7089839 0.01439694
-0.7032529 0.7108457 -0.01156423
-0.7009781 0.7122108 -0.03722057
-0.698271 0.713095 -0.06255478
-0.6951491 0.7135142 -0.08755096
-0.6916302 0.7134845 -0.1121946
-0.6877318 0.713022 -0.1364724
-0.6834714 0.7121429 -0.1603726
-0.6788663 0.7108636 -0.1838845
-0.6739336 0.7092003 -0.2069986
-0.6686903 0.7071691 -0.2297068
-0.6631529 0.704786 -0.2520018
-0.6573379 0.7020669 -0.2738777
-0.6512611 0.6990275 -0.2953295
-0.6449383 0.6956833 -0.3163531
-0.6383849 0.6920495 -0.3369455
-0.6316156 0.688141 -0.3571045
-0.6246452 0.6839726 -0.3768288
-0.6174877 0.6795585 -0.3961177
-0.6101567 0.6749128 -0.4149716
-0.6026657 0.6700492 -0.4333914
-0.5950275 0.664981 -0.4513785
-0.5872544 0.6597211 -0.4689353
-0.5793584 0.6542822 -0.4860644
-0.5713511 0.6486764 -0.5027692
-0.5632436 0.6429154 -0.5190534
-0.5550464 0.6370108 -0.5349213
-0.5467698 0.6309734 -0.5503774
-0.5384237 0.624814 -0.5654268
-0.5300172 0.6185426 -0.5800749
-0.5215594 0.6121691 -0.5943272
-0.5130587 0.6057028 -0.6081898
-0.5045232 0.5991529 -0.6216688
-0.4959608 0.5925278 -0.6347706
-0.4873785 0.5858359 -0.6475018
-0.4787835 0.5790848 -0.659869
-0.4701822 0.5722822 -0.6718793
-0.4615808 0.5654351 -0.6835395
-0.4529853 0.5585503 -0.6948568
-0.444401 0.551634 -0.7058383
-0.4358332 0.5446923 -0.7164912
-0.4272868 0.537731 -0.7268228
-0.4187662 0.5307552 -0.7368404
-0.4102758 0.5237701 -0.7465512
-0.4018195 0.5167802 -0.7559625
-0.393401 0.5097901 -0.7650815
-0.3850237 0.5028037 -0.7739155
-0.3766908 0.4958248 -0.7824716
-0.3684054 0.488857 -0.7907568
-0.3601699 0.4819033 -0.7987784
-0.3519871 0.4749667 -0.8065431
-0.3438591 0.4680499 -0.8140579
-0.3357881 0.4611552 -0.8213296
-0.3277758 0.4542848 -0.8283649
-0.3198242 0.4474405 -0.8351703
-0.3119346 0.4406241 -0.8417524
-0.3041085 0.433837 -0.8481176
-0.2963472 0.4270802 -0.8542721
-0.2886517 0.4203549 -0.8602221
-0.281023 0.4136617 -0.8659735
-0.273462 0.4070012 -0.8715323
-0.2659695 0.4003738 -0.8769042
-0.258546 0.3937796 -0.882095
-0.2511922 0.3872186 -0.88711
-0.2439085 0.3806906 -0.8919548
-0.2366953 0.3741952 -0.8966344
-0.229553 0.3677318 -0.9011541
-0.2224818 0.3612998 -0.9055188
-0.2154819 0.3548983 -0.9097334
-0.2085536 0.3485262 -0.9138024
-0.2016971 0.3421824 -0.9177306
-0.1949124 0.3358657 -0.9215223
-0.1881998 0.3295745 -0.9251819
-0.1815593 0.3233075 -0.9287134
-0.174991 0.3170628 -0.9321209
-0.1684952 0.3108388 -0.9354083
-0.162072 0.3046335 -0.9385793
-0.1557216 0.2984451 -0.9416376
-0.1494443 0.2922714 -0.9445866
-0.1432402 0.2861104 -0.9474297
-0.1371099 0.2799598 -0.9501702
-0.1310537 0.2738174 -0.9528111
-0.125072 0.2676808 -0.9553554
-0.1191655 0.2615477 -0.957806
-0.1133349 0.2554155 -0.9601657
-0.1075808 0.2492818 -0.962437
-0.1019042 0.2431441 -0.9646225
-0.09630603 0.2369997 -0.9667245
-0.09078752 0.2308462 -0.9687454
-0.08534991 0.2246808 -0.9706874
-0.07999464 0.2185009 -0.9725524
-0.07472332 0.2123038 -0.9743426
-0.06953777 0.206087 -0.9760598
-0.06443997 0.1998476 -0.9777057
-0.05943215 0.1935831 -0.9792821
-0.05451674 0.1872907 -0.9807906
-0.04969646 0.1809678 -0.9822326
-0.04497426 0.1746117 -0.9836097
-0.04035342 0.1682198 -0.9849232
-0.03583751 0.1617895 -0.9861743
-0.03143046 0.1553184 -0.9873643
-0.02713655 0.1488039 -0.9884943
-0.02296049 0.1422436 -0.9895653
-0.01890737 0.1356353 -0.9905784
-0.01498278 0.1289767 -0.9915344
-0.01119278 0.1222659 -0.9924343
-0.007543946 0.1155009 -0.9932787
-0.00404341 0.1086803 -0.9940685
-0.0006988756 0.1018025 -0.9948044
0.002481365 0.09486662 -0.9954869
0.005488423 0.08787197 -0.9961167
0.008312824 0.08081837 -0.9966942
0.01094454 0.07370617 -0.9972199
0.01337306 0.06653637 -0.9976944
0.01558748 0.05931068 -0.9981179
0.01757668 0.05203166 -0.9984907
0.01932954 0.04470277 -0.9988133
0.02083518 0.03732844 -0.9990858
0.02208337 0.02991416 -0.9993085
0.02306489 0.02246638 -0.9994815
0.02377198 0.01499253 -0.999605
0.0241987 0.00750081 -0.999679
0.02434136 7.668802e-10 -0.9997037
0.0241987 -0.007500809 -0.999679
0.02377198 -0.01499253 -0.999605
0.02306489 -0.02246638 -0.9994815
0.02208337 -0.02991416 -0.9993085
0.02083518 -0.03732844 -0.9990858
0.01932954 -0.04470277 -0.9988133
0.01757669 -0.05203166 -0.9984907
0.01558748 -0.05931068 -0.9981179
0.01337306 -0.06653637 -0.9976944
0.01094454 -0.07370617 -0.9972199
0.008312825 -0.08081837 -0.9966942
0.005488424 -0.08787197 -0.9961167
0.002481366 -0.09486662 -0.9954869
-0.0006988746 -0.1018025 -0.9948044
-0.004043409 -0.1086803 -0.9940685
-0.007543945 -0.1155009 -0.9932787
-0.01119278 -0.1222659 -0.9924343
-0.01498278 -0.1289767 -0.9915344
-0.01890737 -0.1356353 -0.9905784
-0.02296049 -0.1422436 -0.9895653
-0.02713655 -0.1488039 -0.9884943
-0.03143045 -0.1553184 -0.9873643
-0.03583751 -0.1617895 -0.9861743
-0.04035341 -0.1682198 -0.9849232
-0.04497426 -0.1746117 -0.9836097
-0.04969646 -0.1809678 -0.9822326
-0.05451674 -0.1872907 -0.9807906
-0.05943215 -0.1935831 -0.9792821
-0.06443997 -0.1998476 -0.9777057
-0.06953777 -0.206087 -0.9760598
-0.07472332 -0.2123038 -0.9743426
-0.07999463 -0.2185009 -0.9725524
-0.0853499 -0.2246808 -0.9706874
-0.09078752 -0.2308462 -0.9687454
-0.09630603 -0.2369997 -0.9667245
-0.1019042 -0.2431441 -0.9646225
-0.1075808 -0.2492818 -0.962437
-0.1133348 -0.2554155 -0.9601657
-0.1191655 -0.2615477 -0.957806
-0.125072 -0.2676808 -0.9553554
-0.1310537 -0.2738174 -0.9528111
-0.1371099 -0.2799598 -0.9501702
-0.1432402 -0.2861104 -0.9474297
-0.1494443 -0.2922714 -0.9445866
-0.1557216 -0.2984451 -0.9416376
-0.162072 -0.3046335 -0.9385793
-0.1684952 -0.3108388 -0.9354083
-0.174991 -0.3170628 -0.9321209
-0.1815593 -0.3233075 -0.9287134
-0.1881998 -0.3295745 -0.9251819
-0.1949124 -0.3358657 -0.9215223
-0.2016971 -0.3421824 -0.9177306