# vtk DataFile Version 2.0
Written badly by Kevin Korner
ASCII
DATASET POLYDATA
POINTS 350 FLOAT
0 0 0
0.00286533 0 0
0.005730237 1.404924e-05 4.710289e-05
0.008593885 4.291702e-05 0.0001409379
0.01145544 8.73562e-05 0.0002811025
0.01431408 0.0001481025 0.000467163
0.01716898 0.0002258737 0.0006986558
0.02001934 0.0003213694 0.0009750878
0.02286437 0.0004352699 0.001295938
0.02570328 0.0005682359 0.001660657
0.0285353 0.0007209083 0.002068671
0.03135967 0.0008939072 0.002519379
0.03417564 0.001087832 0.003012156
0.03698248 0.00130326 0.003546355
0.03977946 0.001540748 0.004121306
0.0425659 0.00180083 0.004736318
0.0453411 0.002084018 0.005390681
0.04810439 0.002390802 0.006083666
0.05085512 0.002721649 0.006814526
0.05359264 0.003077004 0.007582498
0.05631635 0.003457289 0.008386803
0.05902564 0.003862901 0.009226651
0.06171993 0.004294219 0.01010124
0.06439865 0.004751595 0.01100974
0.06706125 0.005235361 0.01195134
0.06970722 0.005745824 0.01292519
0.07233604 0.006283272 0.01393046
0.07494723 0.006847969 0.01496628
0.07754032 0.007440155 0.01603181
0.08011485 0.008060053 0.01712617
0.08267039 0.008707861 0.0182485
0.08520655 0.009383756 0.01939794
0.08772292 0.0100879 0.0205736
0.09021913 0.01082042 0.02177462
0.09269483 0.01158144 0.02300012
0.09514969 0.01237106 0.02424923
0.0975834 0.01318935 0.02552108
0.09999565 0.01403637 0.02681481
0.1023862 0.01491216 0.02812954
0.1047547 0.01581676 0.02946442
0.107101 0.01675015 0.03081859
0.1094248 0.01771233 0.03219121
0.111726 0.01870328 0.03358142
0.1140043 0.01972294 0.0349884
0.1162597 0.02077127 0.03641132
0.1184918 0.02184818 0.03784935
0.1207006 0.02295358 0.03930169
0.122886 0.02408738 0.04076753
0.1250479 0.02524946 0.04224608
0.1271861 0.0264397 0.04373657
0.1293005 0.02765794 0.04523821
0.1313913 0.02890404 0.04675025
0.1334581 0.03017784 0.04827195
0.1355012 0.03147916 0.04980256
0.1375203 0.03280782 0.05134136
0.1395155 0.03416362 0.05288764
0.1414868 0.03554636 0.05444069
0.1434343 0.03695584 0.05599985
0.1453579 0.03839182 0.05756442
0.1472576 0.03985409 0.05913375
0.1491336 0.04134241 0.06070719
0.1509859 0.04285654 0.06228411
0.1528145 0.04439623 0.06386389
0.1546195 0.04596123 0.06544591
0.156401 0.04755128 0.0670296
0.1581591 0.04916613 0.06861436
0.1598939 0.05080549 0.07019963
0.1616055 0.0524691 0.07178486
0.163294 0.05415669 0.07336951
0.1649595 0.05586797 0.07495305
0.1666022 0.05760267 0.07653498
0.1682222 0.0593605 0.07811478
0.1698196 0.06114118 0.07969197
0.1713946 0.06294441 0.08126608
0.1729474 0.06476991 0.08283665
0.174478 0.06661739 0.08440324
0.1759866 0.06848656 0.08596539
0.1774735 0.07037712 0.0875227
0.1789387 0.07228878 0.08907474
0.1803824 0.07422125 0.09062112
0.1818048 0.07617424 0.09216146
0.1832061 0.07814745 0.09369536
0.1845865 0.08014059 0.09522248
0.1859461 0.08215338 0.09674244
0.1872851 0.08418552 0.09825492
0.1886037 0.08623673 0.09975956
0.1899021 0.08830671 0.1012561
0.1911804 0.09039519 0.1027441
0.1924389 0.09250188 0.1042234
0.1936777 0.09462649 0.1056936
0.194897 0.09676876 0.1071544
0.196097 0.0989284 0.1086057
0.1972778 0.1011051 0.110047
0.1984398 0.1032987 0.1114782
0.199583 0.1055088 0.112899
0.2007076 0.1077352 0.1143091
0.2018138 0.1099776 0.1157084
0.2029018 0.1122358 0.1170965
0.2039718 0.1145095 0.1184733
0.2050239 0.1167985 0.1198385
0.2060584 0.1191024 0.121192
0.2070753 0.1214211 0.1225335
0.208075 0.1237543 0.1238628
0.2090574 0.1261018 0.1251797
0.2100229 0.1284632 0.1264841
0.2109716 0.1308385 0.1277758
0.2119036 0.1332273 0.1290545
0.2128191 0.1356294 0.1303201
0.2137182 0.1380446 0.1315725
0.2146012 0.1404727 0.1328114
0.2154681 0.1429134 0.1340368
0.2163192 0.1453665 0.1352483
0.2171546 0.1478319 0.136446
0.2179743 0.1503092 0.1376295
0.2187786 0.1527984 0.1387989
0.2195676 0.1552991 0.1399538
0.2203415 0.1578112 0.1410942
0.2211003 0.1603345 0.14222
0.2218442 0.1628688 0.1433309
0.2225733 0.1654139 0.1444268
0.2232878 0.1679696 0.1455076
0.2239877 0.1705357 0.1465732
0.2246732 0.173112 0.1476233
0.2253444 0.1756983 0.1486579
0.2260014 0.1782946 0.1496768
0.2266443 0.1809004 0.1506799
0.2272732 0.1835158 0.1516669
0.2278882 0.1861405 0.1526379
0.2284894 0.1887744 0.1535926
0.2290769 0.1914172 0.1545308
0.2296508 0.1940689 0.1554525
0.2302112 0.1967292 0.1563575
0.2307581 0.1993979 0.1572457
0.2312917 0.202075 0.1581168
0.2318119 0.2047602 0.1589707
0.232319 0.2074533 0.1598073
0.2328129 0.2101543 0.1606265
0.2332937 0.2128629 0.161428
0.2337615 0.215579 0.1622117
0.2342163 0.2183024 0.1629774
0.2346581 0.2210329 0.163725
0.2350872 0.2237704 0.1644544
0.2355034 0.2265148 0.1651652
0.2359068 0.2292659 0.1658574
0.2362975 0.2320234 0.1665309
0.2366755 0.2347873 0.1671853
0.2370408 0.2375573 0.1678205
0.2373935 0.2403333 0.1684364
0.2377336 0.2431152 0.1690328
0.2380612 0.2459027 0.1696094
0.2383761 0.2486958 0.1701661
0.2386785 0.2514941 0.1707028
0.2389684 0.2542976 0.1712191
0.2392458 0.257106 0.1717149
0.2395106 0.2599192 0.17219
0.239763 0.2627371 0.1726443
0.2400028 0.2655593 0.1730774
0.2402301 0.2683857 0.1734893
0.240445 0.2712162 0.1738797
0.2406473 0.2740505 0.1742484
0.240837 0.2768884 0.1745952
0.2410143 0.2797298 0.17492
0.2411789 0.2825743 0.1752225
0.241331 0.2854219 0.1755026
0.2414706 0.2882722 0.1757601
0.2415975 0.2911251 0.1759948
0.2417118 0.2939803 0.1762065
0.2418134 0.2968376 0.1763951
0.2419024 0.2996967 0.1765605
0.2419788 0.3025575 0.1767025
0.2420424 0.3054197 0.1768211
0.2420933 0.308283 0.176916
0.2421315 0.3111472 0.1769873
0.242157 0.314012 0.1770348
0.2421697 0.3168772 0.1770586
0.2421697 0.3197426 0.1770586
0.242157 0.3226078 0.1770348
0.2421315 0.3254726 0.1769873
0.2420933 0.3283368 0.176916
0.2420424 0.3312001 0.1768211
0.2419788 0.3340622 0.1767025
0.2419024 0.336923 0.1765605
0.2418134 0.3397822 0.1763951
0.2417118 0.3426395 0.1762065
0.2415975 0.3454947 0.1759948
0.2414706 0.3483476 0.1757601
0.241331 0.3511979 0.1755026
0.2411789 0.3540455 0.1752225
0.2410143 0.35689 0.17492
0.240837 0.3597314 0.1745952
0.2406473 0.3625693 0.1742484
0.240445 0.3654036 0.1738797
0.2402301 0.368234 0.1734893
0.2400028 0.3710605 0.1730774
0.239763 0.3738827 0.1726443
0.2395106 0.3767005 0.17219
0.2392458 0.3795138 0.1717149
0.2389684 0.3823222 0.1712191
0.2386785 0.3851257 0.1707028
0.2383761 0.387924 0.1701661
0.2380612 0.390717 0.1696094
0.2377336 0.3935046 0.1690328
0.2373935 0.3962864 0.1684364
0.2370408 0.3990625 0.1678205
0.2366755 0.4018325 0.1671853
0.2362975 0.4045964 0.1665309
0.2359068 0.4073539 0.1658574
0.2355034 0.410105 0.1651652
0.2350872 0.4128493 0.1644544
0.2346581 0.4155869 0.163725
0.2342163 0.4183174 0.1629774
0.2337615 0.4210408 0.1622117
0.2332937 0.4237569 0.161428
0.2328129 0.4264655 0.1606265
0.232319 0.4291665 0.1598073
0.2318119 0.4318596 0.1589707
0.2312917 0.4345448 0.1581168
0.2307581 0.4372219 0.1572457
0.2302112 0.4398906 0.1563575
0.2296508 0.4425509 0.1554525
0.2290769 0.4452025 0.1545308
0.2284894 0.4478454 0.1535926
0.2278882 0.4504792 0.1526379
0.2272732 0.4531039 0.1516669
0.2266443 0.4557193 0.1506799
0.2260014 0.4583252 0.1496768
0.2253444 0.4609214 0.1486579
0.2246732 0.4635078 0.1476233
0.2239877 0.4660841 0.1465732
0.2232878 0.4686502 0.1455076
0.2225733 0.4712059 0.1444268
0.2218442 0.473751 0.1433309
0.2211003 0.4762852 0.14222
0.2203415 0.4788085 0.1410942
0.2195676 0.4813207 0.1399538
0.2187786 0.4838214 0.1387989
0.2179743 0.4863105 0.1376295
0.2171546 0.4887879 0.136446
0.2163192 0.4912533 0.1352483
0.2154681 0.4937064 0.1340368
0.2146012 0.4961471 0.1328114
0.2137182 0.4985752 0.1315725
0.2128191 0.5009904 0.1303201
0.2119036 0.5033925 0.1290545
0.2109716 0.5057813 0.1277758
0.2100229 0.5081565 0.1264841
0.2090574 0.510518 0.1251797
0.208075 0.5128655 0.1238628
0.2070753 0.5151987 0.1225335
0.2060584 0.5175173 0.121192
0.2050239 0.5198213 0.1198385
0.2039718 0.5221102 0.1184733
0.2029018 0.5243839 0.1170965
0.2018138 0.5266421 0.1157084
0.2007076 0.5288846 0.1143091
0.199583 0.531111 0.112899
0.1984398 0.5333211 0.1114782
0.1972778 0.5355146 0.110047
0.196097 0.5376914 0.1086057
0.194897 0.539851 0.1071544
0.1936777 0.5419933 0.1056936
0.1924389 0.5441179 0.1042234
0.1911804 0.5462246 0.1027441
0.1899021 0.5483131 0.1012561
0.1886037 0.550383 0.09975956
0.1872851 0.5524343 0.09825492
0.1859461 0.5544664 0.09674244
0.1845865 0.5564792 0.09522248
0.1832061 0.5584723 0.09369536
0.1818048 0.5604455 0.09216146
0.1803824 0.5623985 0.09062112
0.1789387 0.564331 0.08907474
0.1774735 0.5662427 0.0875227
0.1759866 0.5681332 0.08596539
0.174478 0.5700024 0.08440324
0.1729474 0.5718499 0.08283666
0.1713946 0.5736754 0.08126608
0.1698196 0.5754786 0.07969197
0.1682222 0.5772593 0.07811478
0.1666022 0.5790171 0.07653498
0.1649595 0.5807518 0.07495305
0.163294 0.5824631 0.07336951
0.1616055 0.5841507 0.07178486
0.1598939 0.5858143 0.07019963
0.1581591 0.5874536 0.06861436
0.156401 0.5890685 0.0670296
0.1546195 0.5906585 0.06544591
0.1528145 0.5922235 0.06386389
0.1509859 0.5937632 0.06228411
0.1491336 0.5952774 0.06070719
0.1472576 0.5967657 0.05913375
0.1453579 0.5982279 0.05756442
0.1434343 0.5996639 0.05599985
0.1414868 0.6010734 0.05444069
0.1395155 0.6024562 0.05288764
0.1375203 0.603812 0.05134136
0.1355012 0.6051406 0.04980256
0.1334581 0.6064419 0.04827195
0.1313913 0.6077157 0.04675025
0.1293005 0.6089618 0.04523821
0.1271861 0.6101801 0.04373657
0.1250479 0.6113703 0.04224608
0.122886 0.6125324 0.04076753
0.1207006 0.6136662 0.03930169
0.1184918 0.6147716 0.03784935
0.1162597 0.6158485 0.03641132
0.1140043 0.6168968 0.0349884
0.111726 0.6179165 0.03358142
0.1094248 0.6189074 0.03219121
0.107101 0.6198696 0.03081859
0.1047547 0.620803 0.02946442
0.1023862 0.6217076 0.02812954
0.09999565 0.6225834 0.02681481
0.0975834 0.6234304 0.02552108
0.09514969 0.6242487 0.02424923
0.09269483 0.6250383 0.02300012
0.09021913 0.6257994 0.02177462
0.08772292 0.6265319 0.0205736
0.08520655 0.627236 0.01939794
0.08267039 0.6279119 0.0182485
0.08011485 0.6285597 0.01712617
0.07754032 0.6291796 0.01603181
0.07494723 0.6297718 0.01496628
0.07233604 0.6303365 0.01393046
0.06970722 0.6308739 0.01292519
0.06706125 0.6313844 0.01195134
0.06439865 0.6318682 0.01100974
0.06171993 0.6323256 0.01010124
0.05902564 0.6327569 0.009226651
0.05631635 0.6331625 0.008386803
0.05359264 0.6335428 0.007582498
0.05085512 0.6338981 0.006814526
0.04810439 0.634229 0.006083666
0.0453411 0.6345358 0.005390681
0.0425659 0.6348189 0.004736318
0.03977946 0.635079 0.004121306
0.03698248 0.6353165 0.003546355
0.03417564 0.6355319 0.003012156
0.03135967 0.6357259 0.002519379
0.0285353 0.6358989 0.002068671
0.02570328 0.6360515 0.001660657
0.02286437 0.6361845 0.001295938
0.02001934 0.6362984 0.0009750879
0.01716898 0.6363939 0.0006986558
0.01431408 0.6364717 0.000467163
0.01145544 0.6365324 0.0002811025
0.008593885 0.6365769 0.0001409379
0.005730237 0.6366057 4.710289e-05
0.00286533 0.6366198 0
0 0.6366198 0

LINES 349 1047
2 0 1
2 1 2
2 2 3
2 3 4
2 4 5
2 5 6
2 6 7
2 7 8
2 8 9
2 9 10
2 10 11
2 11 12
2 12 13
2 13 14
2 14 15
2 15 16
2 16 17
2 17 18
2 18 19
2 19 20
2 20 21
2 21 22
2 22 23
2 23 24
2 24 25
2 25 26
2 26 27
2 27 28
2 28 29
2 29 30
2 30 31
2 31 32
2 32 33
2 33 34
2 34 35
2 35 36
2 36 37
2 37 38
2 38 39
2 39 40
2 40 41
2 41 42
2 42 43
2 43 44
2 44 45
2 45 46
2 46 47
2 47 48
2 48 49
2 49 50
2 50 51
2 51 52
2 52 53
2 53 54
2 54 55
2 55 56
2 56 57
2 57 58
2 58 59
2 59 60
2 60 61
2 61 62
2 62 63
2 63 64
2 64 65
2 65 66
2 66 67
2 67 68
2 68 69
2 69 70
2 70 71
2 71 72
2 72 73
2 73 74
2 74 75
2 75 76
2 76 77
2 77 78
2 78 79
2 79 80
2 80 81
2 81 82
2 82 83
2 83 84
2 84 85
2 85 86
2 86 87
2 87 88
2 88 89
2 89 90
2 90 91
2 91 92
2 92 93
2 93 94
2 94 95
2 95 96
2 96 97
2 97 98
2 98 99
2 99 100
2 100 101
2 101 102
2 102 103
2 103 104
2 104 105
2 105 106
2 106 107
2 107 108
2 108 109
2 109 110
2 110 111
2 111 112
2 112 113
2 113 114
2 114 115
2 115 116
2 116 117
2 117 118
2 118 119
2 119 120
2 120 121
2 121 122
2 122 123
2 123 124
2 124 125
2 125 126
2 126 127
2 127 128
2 128 129
2 129 130
2 130 131
2 131 132
2 132 133
2 133 134
2 134 135
2 135 136
2 136 137
2 137 138
2 138 139
2 139 140
2 140 141
2 141 142
2 142 143
2 143 144
2 144 145
2 145 146
2 146 147
2 147 148
2 148 149
2 149 150
2 150 151
2 151 152
2 152 153
2 153 154
2 154 155
2 155 156
2 156 157
2 157 158
2 158 159
2 159 160
2 160 161
2 161 162
2 162 163
2 163 164
2 164 165
2 165 166
2 166 167
2 167 168
2 168 169
2 169 170
2 170 171
2 171 172
2 172 173
2 173 174
2 174 175
2 175 176
2 176 177
2 177 178
2 178 179
2 179 180
2 180 181
2 181 182
2 182 183
2 183 184
2 184 185
2 185 186
2 186 187
2 187 188
2 188 189
2 189 190
2 190 191
2 191 192
2 192 193
2 193 194
2 194 195
2 195 196
2 196 197
2 197 198
2 198 199
2 199 200
2 200 201
2 201 202
2 202 203
2 203 204
2 204 205
2 205 206
2 206 207
2 207 208
2 208 209
2 209 210
2 210 211
2 211 212
2 212 213
2 213 214
2 214 215
2 215 216
2 216 217
2 217 218
2 218 219
2 219 220
2 220 221
2 221 222
2 222 223
2 223 224
2 224 225
2 225 226
2 226 227
2 227 228
2 228 229
2 229 230
2 230 231
2 231 232
2 232 233
2 233 234
2 234 235
2 235 236
2 236 237
2 237 238
2 238 239
2 239 240
2 240 241
2 241 242
2 242 243
2 243 244
2 244 245
2 245 246
2 246 247
2 247 248
2 248 249
2 249 250
2 250 251
2 251 252
2 252 253
2 253 254
2 254 255
2 255 256
2 256 257
2 257 258
2 258 259
2 259 260
2 260 261
2 261 262
2 262 263
2 263 264
2 264 265
2 265 266
2 266 267
2 267 268
2 268 269
2 269 270
2 270 271
2 271 272
2 272 273
2 273 274
2 274 275
2 275 276
2 276 277
2 277 278
2 278 279
2 279 280
2 280 281
2 281 282
2 282 283
2 283 284
2 284 285
2 285 286
2 286 287
2 287 288
2 288 289
2 289 290
2 290 291
2 291 292
2 292 293
2 293 294
2 294 295
2 295 296
2 296 297
2 297 298
2 298 299
2 299 300
2 300 301
2 301 302
2 302 303
2 303 304
2 304 305
2 305 306
2 306 307
2 307 308
2 308 309
2 309 310
2 310 311
2 311 312
2 312 313
2 313 314
2 314 315
2 315 316
2 316 317
2 317 318
2 318 319
2 319 320
2 320 321
2 321 322
2 322 323
2 323 324
2 324 325
2 325 326
2 326 327
2 327 328
2 328 329
2 329 330
2 330 331
2 331 332
2 332 333
2 333 334
2 334 335
2 335 336
2 336 337
2 337 338
2 338 339
2 339 340
2 340 341
2 341 342
2 342 343
2 343 344
2 344 345
2 345 346
2 346 347
2 347 348
2 348 349


POINT_DATA 350
SCALARS a FLOAT 1
LOOKUP_TABLE default
0.0005894628
0.0005894628
0.0005894628
0.0005894628
0.0005894628
0.0005894628
0.0005894628
0.0005894628
0.0005894628
0.0005894628
0.0005894628
0.0005894628
0.0005894628
0.0005894628
0.0005894628
0.0005894628
0.0005894628
0.0005894628
0.0005894628
0.0005894628
0.0005894628
0.0005894628
0.0005894628
0.0005894628
0.0005894628
0.0005894628
0.0005894628
0.0005894628
0.0005894628
0.0005894628
0.0005894628
0.0005894628
0.0005894628
0.0005894628
0.0005894628
0.0005894628
0.0005894628
0.0005894628
0.0005894628
0.0005894628
0.0005894628
0.0005894628
0.0005894628
0.0005894628
0.0005894628
0.0005894628
0.0005894628
0.0005894628
0.0005894628
0.0005894628
0.0005894628
0.0005894628
0.0005894628
0.0005894628
0.0005894628
0.0005894628
0.0005894628
0.0005894628
0.0005894628
0.0005894628
0.0005894628
0.0005894628
0.0005894628
0.0005894628
0.0005894628
0.0005894628
0.0005894628
0.0005894628
0.0005894628
0.0005894628
0.0005894628
0.0005894628
0.0005894628
0.0005894628
0.0005894628
0.0005894628
0.0005894628
0.0005894628
0.0005894628
0.0005894628
0.0005894628
0.0005894628
0.0005894628
0.0005894628
0.0005894628
0.0005894628
0.0005894628
0.0005894628
0.0005894628
0.0005894628
0.0005894628
0.0005894628
0.0005894628
0.0005894628
0.0005894628
0.0005894628
0.0005894628
0.0005894628
0.0005894628
0.0005894628
0.0005894628
0.0005894628
0.0005894628
0.0005894628
0.0005894628
0.0005894628
0.0005894628
0.0005894628
0.0005894628
0.0005894628
0.0005894628
0.0005894628
0.0005894628
0.0005894628
0.0005894628
0.0005894628
0.0005894628
0.0005894628
0.0005894628
0.0005894628
0.0005894628
0.0005894628
0.0005894628
0.0005894628
0.0005894628
0.0005894628
0.0005894628
0.0005894628
0.0005894628
0.0005894628
0.0005894628
0.0005894628
0.0005894628
0.0005894628
0.0005894628
0.0005894628
0.0005894628
0.0005894628
0.0005894628
0.0005894628
0.0005894628
0.0005894628
0.0005894628
0.0005894628
0.0005894628
0.0005894628
0.0005894628
0.0005894628
0.0005894628
0.0005894628
0.0005894628
0.0005894628
0.0005894628
0.0005894628
0.0005894628
0.0005894628
0.0005894628
0.0005894628
0.0005894628
0.0005894628
0.0005894628
0.0005894628
0.0005894628
0.0005894628
0.0005894628
0.0005894628
0.0005894628
0.0005894628
0.0005894628
0.0005894628
0.0005894628
0.0005894628
0.0005894628
0.0005894628
0.0005894628
0.0005894628
0.0005894628
0.0005894628
0.0005894628
0.0005894628
0.0005894628
0.0005894628
0.0005894628
0.0005894628
0.0005894628
0.0005894628
0.0005894628
0.0005894628
0.0005894628
0.0005894628
0.0005894628
0.0005894628
0.0005894628
0.0005894628
0.0005894628
0.0005894628
0.0005894628
0.0005894628
0.0005894628
0.0005894628
0.0005894628
0.0005894628
0.0005894628
0.0005894628
0.0005894628
0.0005894628
0.0005894628
0.0005894628
0.0005894628
0.0005894628
0.0005894628
0.0005894628
0.0005894628
0.0005894628
0.0005894628
0.0005894628
0.0005894628
0.0005894628
0.0005894628
0.0005894628
0.0005894628
0.0005894628
0.0005894628
0.0005894628
0.0005894628
0.0005894628
0.0005894628
0.0005894628
0.0005894628
0.0005894628
0.0005894628
0.0005894628
0.0005894628
0.0005894628
0.0005894628
0.0005894628
0.0005894628
0.0005894628
0.0005894628
0.0005894628
0.0005894628
0.0005894628
0.0005894628
0.0005894628
0.0005894628
0.0005894628
0.0005894628
0.0005894628
0.0005894628
0.0005894628
0.0005894628
0.0005894628
0.0005894628
0.0005894628
0.0005894628
0.0005894628
0.0005894628
0.0005894628
0.0005894628
0.0005894628
0.0005894628
0.0005894628
0.0005894628
0.0005894628
0.0005894628
0.0005894628
0.0005894628
0.0005894628
0.0005894628
0.0005894628
0.0005894628
0.0005894628
0.0005894628
0.0005894628
0.0005894628
0.0005894628
0.0005894628
0.0005894628
0.0005894628
0.0005894628
0.0005894628
0.0005894628
0.0005894628
0.0005894628
0.0005894628
0.0005894628
0.0005894628
0.0005894628
0.0005894628
0.0005894628
0.0005894628
0.0005894628
0.0005894628
0.0005894628
0.0005894628
0.0005894628
0.0005894628
0.0005894628
0.0005894628
0.0005894628
0.0005894628
0.0005894628
0.0005894628
0.0005894628
0.0005894628
0.0005894628
0.0005894628
0.0005894628
0.0005894628
0.0005894628
0.0005894628
0.0005894628
0.0005894628
0.0005894628
0.0005894628
0.0005894628
0.0005894628
0.0005894628
0.0005894628
0.0005894628
0.0005894628
0.0005894628
0.0005894628
0.0005894628
0.0005894628
0.0005894628
0.0005894628
0.0005894628
0.0005894628
0.0005894628
0.0005894628
0.0005894628
0.0005894628
0.0005894628
0.0005894628
0.0005894628
0.0005894628
0.0005894628
0.0005894628
0.0005894628
0.0005894628
0.0005894628
0.0005894628
0.0005894628
0.0005894628
0.0005894628
0.0005894628
0.0005894628
0.0005894628
0.0005894628


SCALARS b FLOAT 1
LOOKUP_TABLE default
0.04420971
0.04420971
0.04420971
0.04420971
0.04420971
0.04420971
0.04420971
0.04420971
0.04420971
0.04420971
0.04420971
0.04420971
0.04420971
0.04420971
0.04420971
0.04420971
0.04420971
0.04420971
0.04420971
0.04420971
0.04420971
0.04420971
0.04420971
0.04420971
0.04420971
0.04420971
0.04420971
0.04420971
0.04420971
0.04420971
0.04420971
0.04420971
0.04420971
0.04420971
0.04420971
0.04420971
0.04420971
0.04420971
0.04420971
0.04420971
0.04420971
0.04420971
0.04420971
0.04420971
0.04420971
0.04420971
0.04420971
0.04420971
0.04420971
0.04420971
0.04420971
0.04420971
0.04420971
0.04420971
0.04420971
0.04420971
0.04420971
0.04420971
0.04420971
0.04420971
0.04420971
0.04420971
0.04420971
0.04420971
0.04420971
0.04420971
0.04420971
0.04420971
0.04420971
0.04420971
0.04420971
0.04420971
0.04420971
0.04420971
0.04420971
0.04420971
0.04420971
0.04420971
0.04420971
0.04420971
0.04420971
0.04420971
0.04420971
0.04420971
0.04420971
0.04420971
0.04420971
0.04420971
0.04420971
0.04420971
0.04420971
0.04420971
0.04420971
0.04420971
0.04420971
0.04420971
0.04420971
0.04420971
0.04420971
0.04420971
0.04420971
0.04420971
0.04420971
0.04420971
0.04420971
0.04420971
0.04420971
0.04420971
0.04420971
0.04420971
0.04420971
0.04420971
0.04420971
0.04420971
0.04420971
0.04420971
0.04420971
0.04420971
0.04420971
0.04420971
0.04420971
0.04420971
0.04420971
0.04420971
0.04420971
0.04420971
0.04420971
0.04420971
0.04420971
0.04420971
0.04420971
0.04420971
0.04420971
0.04420971
0.04420971
0.04420971
0.04420971
0.04420971
0.04420971
0.04420971
0.04420971
0.04420971
0.04420971
0.04420971
0.04420971
0.04420971
0.04420971
0.04420971
0.04420971
0.04420971
0.04420971
0.04420971
0.04420971
0.04420971
0.04420971
0.04420971
0.04420971
0.04420971
0.04420971
0.04420971
0.04420971
0.04420971
0.04420971
0.04420971
0.04420971
0.04420971
0.04420971
0.04420971
0.04420971
0.04420971
0.04420971
0.04420971
0.04420971
0.04420971
0.04420971
0.04420971
0.04420971
0.04420971
0.04420971
0.04420971
0.04420971
0.04420971
0.04420971
0.04420971
0.04420971
0.04420971
0.04420971
0.04420971
0.04420971
0.04420971
0.04420971
0.04420971
0.04420971
0.04420971
0.04420971
0.04420971
0.04420971
0.04420971
0.04420971
0.04420971
0.04420971
0.04420971
0.04420971
0.04420971
0.04420971
0.04420971
0.04420971
0.04420971
0.04420971
0.04420971
0.04420971
0.04420971
0.04420971
0.04420971
0.04420971
0.04420971
0.04420971
0.04420971
0.04420971
0.04420971
0.04420971
0.04420971
0.04420971
0.04420971
0.04420971
0.04420971
0.04420971
0.04420971
0.04420971
0.04420971
0.04420971
0.04420971
0.04420971
0.04420971
0.04420971
0.04420971
0.04420971
0.04420971
0.04420971
0.04420971
0.04420971
0.04420971
0.04420971
0.04420971
0.04420971
0.04420971
0.04420971
0.04420971
0.04420971
0.04420971
0.04420971
0.04420971
0.04420971
0.04420971
0.04420971
0.04420971
0.04420971
0.04420971
0.04420971
0.04420971
0.04420971
0.04420971
0.04420971
0.04420971
0.04420971
0.04420971
0.04420971
0.04420971
0.04420971
0.04420971
0.04420971
0.04420971
0.04420971
0.04420971
0.04420971
0.04420971
0.04420971
0.04420971
0.04420971
0.04420971
0.04420971
0.04420971
0.04420971
0.04420971
0.04420971
0.04420971
0.04420971
0.04420971
0.04420971
0.04420971
0.04420971
0.04420971
0.04420971
0.04420971
0.04420971
0.04420971
0.04420971
0.04420971
0.04420971
0.04420971
0.04420971
0.04420971
0.04420971
0.04420971
0.04420971
0.04420971
0.04420971
0.04420971
0.04420971
0.04420971
0.04420971
0.04420971
0.04420971
0.04420971
0.04420971
0.04420971
0.04420971
0.04420971
0.04420971
0.04420971
0.04420971
0.04420971
0.04420971
0.04420971
0.04420971
0.04420971
0.04420971
0.04420971
0.04420971
0.04420971
0.04420971
0.04420971
0.04420971
0.04420971
0.04420971
0.04420971
0.04420971
0.04420971
0.04420971
0.04420971
0.04420971
0.04420971
0.04420971
0.04420971
0.04420971
0.04420971
0.04420971
0.04420971
0.04420971
0.04420971


VECTORS d1 FLOAT
0 0.2774823 0.9607307
-0.01715394 0.2939322 0.9556723
-0.03425812 0.3101704 0.9500635
-0.05130028 0.3261866 0.9439124
-0.06826838 0.3419709 0.9372275
-0.08515058 0.3575135 0.930018
-0.1019353 0.3728052 0.9222936
-0.1186112 0.3878372 0.9140644
-0.1351672 0.4026012 0.9053409
-0.1515926 0.417089 0.8961342
-0.1678768 0.4312931 0.8864557
-0.1840097 0.4452064 0.8763171
-0.1999815 0.4588223 0.8657306
-0.2157827 0.4721344 0.8547087
-0.2314042 0.485137 0.843264
-0.2468371 0.4978246 0.8314097
-0.262073 0.5101925 0.8191589
-0.2771039 0.5222362 0.8065251
-0.2919222 0.5339515 0.793522
-0.3065204 0.5453351 0.7801634
-0.3208917 0.5563836 0.7664632
-0.3350297 0.5670945 0.7524353
-0.3489281 0.5774654 0.7380941
-0.3625813 0.5874946 0.7234535
-0.3759838 0.5971804 0.7085278
-0.3891308 0.606522 0.6933312
-0.4020177 0.6155187 0.6778779
-0.4146403 0.6241702 0.662182
-0.4269948 0.6324766 0.6462575
-0.4390778 0.6404385 0.6301184
-0.4508862 0.6480566 0.6137786
-0.4624175 0.6553322 0.5972519
-0.4736691 0.6622667 0.5805518
-0.4846393 0.668862 0.5636918
-0.4953263 0.6751202 0.5466851
-0.5057289 0.6810438 0.5295448
-0.5158461 0.6866354 0.5122837
-0.5256774 0.6918981 0.4949145
-0.5352223 0.696835 0.4774496
-0.5444809 0.7014496 0.4599012
-0.5534534 0.7057456 0.4422811
-0.5621404 0.7097268 0.424601
-0.5705428 0.7133975 0.4068721
-0.5786615 0.7167619 0.3891057
-0.586498 0.7198244 0.3713125
-0.5940539 0.7225896 0.3535029
-0.6013309 0.7250623 0.3356872
-0.608331 0.7272474 0.3178752
-0.6150565 0.7291499 0.3000765
-0.6215099 0.7307749 0.2823003
-0.6276936 0.7321277 0.2645557
-0.6336106 0.7332135 0.2468512
-0.6392638 0.7340377 0.2291952
-0.6446562 0.7346058 0.2115956
-0.6497912 0.7349231 0.1940602
-0.6546721 0.7349954 0.1765962
-0.6593024 0.734828 0.1592109
-0.6636857 0.7344267 0.1419108
-0.6678258 0.7337969 0.1247025
-0.6717265 0.7329443 0.1075921
-0.6753917 0.7318745 0.09058549
-0.6788254 0.730593 0.07368812
-0.6820315 0.7291055 0.05690529
-0.6850143 0.7274173 0.04024196
-0.687778 0.725534 0.02370282
-0.6903266 0.7234611 0.007292283
-0.6926645 0.7212039 -0.008985511
-0.694796 0.7187678 -0.02512668
-0.6967253 0.7161581 -0.04112762
-0.6984567 0.7133799 -0.05698494
-0.6999947 0.7104384 -0.07269554
-0.7013436 0.7073387 -0.08825652
-0.7025076 0.7040857 -0.1036652
-0.7034911 0.7006843 -0.1189192
-0.7042984 0.6971394 -0.1340164
-0.7049339 0.6934556 -0.1489546
-0.7054019 0.6896376 -0.1637321
-0.7057065 0.6856899 -0.1783473
-0.7058521 0.6816168 -0.1927988
-0.7058427 0.6774228 -0.2070853
-0.7056827 0.673112 -0.2212059
-0.7053761 0.6686886 -0.2351597
-0.7049271 0.6641564 -0.2489458
-0.7043396 0.6595195 -0.2625638
-0.7036177 0.6547815 -0.2760133
-0.7027653 0.6499461 -0.289294
-0.7017863 0.6450169 -0.3024057
-0.7006845 0.6399973 -0.3153484
-0.6994639 0.6348906 -0.3281223
-0.698128 0.6296999 -0.3407275
-0.6966807 0.6244284 -0.3531645
-0.6951254 0.6190791 -0.3654336
-0.6934658 0.6136547 -0.3775355
-0.6917055 0.608158 -0.3894706
-0.6898477 0.6025916 -0.4012398
-0.6878961 0.5969581 -0.4128439
-0.6858537 0.5912597 -0.4242836
-0.6837241 0.5854988 -0.43556
-0.6815103 0.5796776 -0.446674
-0.6792155 0.573798 -0.4576267
-0.6768428 0.567862 -0.4684192
-0.6743953 0.5618715 -0.4790526
-0.6718759 0.5558281 -0.4895282
-0.6692876 0.5497335 -0.4998472
-0.6666332 0.5435892 -0.5100107
-0.6639156 0.5373965 -0.5200202
-0.6611376 0.5311568 -0.5298769
-0.6583017 0.5248713 -0.5395822
-0.6554108 0.5185411 -0.5491373
-0.6524675 0.5121671 -0.5585437
-0.6494742 0.5057503 -0.5678027
-0.6464336 0.4992915 -0.5769156
-0.643348 0.4927914 -0.5858839
-0.6402201 0.4862507 -0.5947087
-0.6370522 0.4796698 -0.6033916
-0.6338466 0.4730492 -0.6119338
-0.6306057 0.4663894 -0.6203365
-0.6273318 0.4596905 -0.6286011
-0.6240273 0.4529529 -0.6367289
-0.6206943 0.4461766 -0.6447209
-0.6173351 0.4393616 -0.6525785
-0.6139519 0.4325081 -0.6603028
-0.610547 0.4256158 -0.6678949
-0.6071225 0.4186846 -0.6753558
-0.6036805 0.4117144 -0.6826867
-0.6002234 0.4047047 -0.6898883
-0.5967533 0.3976553 -0.6969618
-0.5932723 0.3905658 -0.7039079
-0.5897826 0.3834356 -0.7107275
-0.5862865 0.3762643 -0.7174213
-0.5827861 0.3690513 -0.72399
-0.5792838 0.3617959 -0.7304341
-0.5757817 0.3544974 -0.7367543
-0.5722823 0.3471552 -0.7429511
-0.5687877 0.3397685 -0.7490247
-0.5653004 0.3323364 -0.7549755
-0.5618229 0.3248582 -0.7608037
-0.5583575 0.3173328 -0.7665094
-0.554907 0.3097595 -0.7720928
-0.5514738 0.3021373 -0.7775536
-0.5480607 0.2944652 -0.7828919
-0.5446705 0.2867423 -0.7881071
-0.5413061 0.2789675 -0.7931991
-0.5379704 0.2711398 -0.7981673
-0.5346666 0.2632582 -0.8030111
-0.5313979 0.2553217 -0.8077296
-0.5281676 0.2473292 -0.8123221
-0.5249793 0.2392799 -0.8167875
-0.5218366 0.2311726 -0.8211247
-0.5187433 0.2230066 -0.8253323
-0.5157036 0.2147808 -0.8294088
-0.5127215 0.2064945 -0.8333527
-0.5098015 0.1981469 -0.837162
-0.5069482 0.1897373 -0.8408349
-0.5041664 0.1812652 -0.8443691
-0.5014613 0.1727302 -0.8477623
-0.4988381 0.1641319 -0.8510119
-0.4963025 0.1554703 -0.8541152
-0.4938602 0.1467454 -0.8570694
-0.4915173 0.1379577 -0.8598712
-0.48928 0.1291077 -0.8625174
-0.487155 0.1201965 -0.8650045
-0.4851488 0.1112252 -0.867329
-0.4832682 0.1021957 -0.8694871
-0.4815203 0.09310993 -0.871475
-0.4799118 0.08397067 -0.8732889
-0.4784498 0.07478097 -0.8749249
-0.4771408 0.06554452 -0.8763792
-0.4759913 0.05626551 -0.8776483
-0.4750072 0.04694873 -0.8787286
-0.474194 0.03759948 -0.8796171
-0.4735563 0.02822357 -0.8803112
-0.473098 0.01882725 -0.8808086
-0.4728218 0.009417113 -0.8811077
-0.4727296 2.673722e-09 -0.8812075
-0.4728218 -0.009417108 -0.8811077
-0.473098 -0.01882725 -0.8808086
-0.4735563 -0.02822357 -0.8803112
-0.474194 -0.03759948 -0.8796171
-0.4750072 -0.04694872 -0.8787286
-0.4759913 -0.05626551 -0.8776483
-0.4771408 -0.06554451 -0.8763792
-0.4784498 -0.07478097 -0.8749249
-0.4799118 -0.08397066 -0.8732889
-0.4815203 -0.09310993 -0.871475
-0.4832682 -0.1021956 -0.8694871
-0.4851488 -0.1112252 -0.867329
-0.487155 -0.1201965 -0.8650045
-0.48928 -0.1291077 -0.8625174
-0.4915173 -0.1379577 -0.8598712
-0.4938602 -0.1467454 -0.8570694
-0.4963025 -0.1554703 -0.8541152
-0.4988381 -0.1641319 -0.8510119
-0.5014613 -0.1727302 -0.8477623
-0.5041664 -0.1812652 -0.8443691
-0.5069482 -0.1897373 -0.8408349
-0.5098015 -0.1981469 -0.837162
-0.5127215 -0.2064945 -0.8333527
-0.5157036 -0.2147808 -0.8294088
-0.5187433 -0.2230066 -0.8253323
-0.5218366 -0.2311726 -0.8211247
-0.5249793 -0.2392799 -0.8167875
-0.5281676 -0.2473292 -0.8123221
-0.5313979 -0.2553217 -0.8077296
-0.5346666 -0.2632582 -0.8030111
-0.5379704 -0.2711398 -0.7981673
-0.5413061 -0.2789675 -0.7931991
-0.5446705 -0.2867423 -0.7881071
-0.5480607 -0.2944652 -0.7828919
-0.5514738 -0.3021373 -0.7775536
-0.554907 -0.3097595 -0.7720928
-0.5583575 -0.3173328 -0.7665094
-0.5618229 -0.3248581 -0.7608037
-0.5653004 -0.3323364 -0.7549755
-0.5687877 -0.3397685 -0.7490247
-0.5722823 -0.3471552 -0.7429511
-0.5757817 -0.3544974 -0.7367543
-0.5792838 -0.3617959 -0.7304341
-0.5827861 -0.3690513 -0.72399
-0.5862865 -0.3762643 -0.7174213
-0.5897826 -0.3834356 -0.7107275
-0.5932723 -0.3905658 -0.7039079
-0.5967533 -0.3976553 -0.6969618
-0.6002234 -0.4047047 -0.6898883
-0.6036805 -0.4117144 -0.6826867
-0.6071225 -0.4186846 -0.6753558
-0.610547 -0.4256158 -0.6678949
-0.6139519 -0.4325081 -0.6603028
-0.6173351 -0.4393616 -0.6525785
-0.6206943 -0.4461766 -0.6447209