# vtk DataFile Version 2.0
Written badly by Kevin Korner
ASCII
DATASET POLYDATA
POINTS 350 FLOAT
0 0 0
0.00286533 0 0
0.005728379 -7.691265e-05 8.454261e-05
0.008584445 -0.0002289495 0.0002574034
0.01142863 -0.0004539444 0.0005221729
0.01425586 -0.0007493456 0.0008822203
0.0170609 -0.001112211 0.001340657
0.01983842 -0.001539209 0.001900302
0.02258296 -0.002026618 0.002563645
0.02528904 -0.002570338 0.003332814
0.02795114 -0.003165901 0.004209543
0.03056376 -0.003808489 0.005195144
0.03312146 -0.004492952 0.006290481
0.03561892 -0.005213837 0.007495947
0.03805093 -0.005965419 0.00881145
0.0404125 -0.006741732 0.0102364
0.04269883 -0.007536608 0.01176969
0.04490541 -0.00834372 0.01340971
0.04702803 -0.009156624 0.01515435
0.04906281 -0.009968805 0.01700101
0.05100625 -0.01077372 0.01894658
0.05285524 -0.01156486 0.02098753
0.05460708 -0.01233578 0.02311986
0.05625952 -0.01308016 0.0253392
0.05781077 -0.01379182 0.02764078
0.05925947 -0.01446482 0.03001954
0.06060474 -0.01509343 0.03247008
0.06184618 -0.01567225 0.03498681
0.0629838 -0.01619614 0.03756392
0.06401809 -0.01666033 0.04019544
0.06494993 -0.01706043 0.0428753
0.06578065 -0.0173924 0.0455974
0.06651191 -0.01765263 0.0483556
0.06714576 -0.0178379 0.05114379
0.06768457 -0.01794541 0.05395595
0.06813098 -0.01797277 0.05678616
0.06848794 -0.017918 0.05962864
0.06875858 -0.01777952 0.0624778
0.06894625 -0.01755614 0.06532823
0.06905447 -0.01724703 0.06817479
0.06908688 -0.01685174 0.07101253
0.06904722 -0.01637015 0.07383682
0.06893929 -0.01580246 0.07664328
0.06876697 -0.01514915 0.07942781
0.0685341 -0.01441098 0.08218661
0.06824456 -0.01358896 0.08491618
0.06790216 -0.01268433 0.08761331
0.06751069 -0.01169851 0.09027509
0.06707386 -0.01063312 0.09289887
0.06659527 -0.009489915 0.09548231
0.06607846 -0.008270793 0.09802332
0.06552684 -0.006977756 0.1005201
0.0649437 -0.005612899 0.1029711
0.06433221 -0.004178391 0.1053749
0.06369539 -0.002676454 0.1077305
0.06303614 -0.001109348 0.1100369
0.06235723 0.0005206399 0.1122935
0.06166124 0.002211214 0.1144998
0.06095067 0.003960079 0.1166554
0.06022784 0.00576495 0.1187602
0.05949492 0.007623566 0.1208141
0.05875399 0.009533694 0.1228172
0.05800695 0.01149314 0.1247698
0.05725558 0.01349975 0.1266722
0.05650156 0.01555142 0.1285248
0.0557464 0.0176461 0.1303282
0.05499154 0.01978179 0.132083
0.05423828 0.02195656 0.1337897
0.05348781 0.02416855 0.1354493
0.05274124 0.02641592 0.1370623
0.05199956 0.02869695 0.1386298
0.05126368 0.03100995 0.1401525
0.05053441 0.0333533 0.1416314
0.04981249 0.03572545 0.1430673
0.04909859 0.03812491 0.1444612
0.04839329 0.04055025 0.1458141
0.04769711 0.04300013 0.147127
0.04701051 0.04547322 0.1484007
0.04633388 0.04796829 0.1496364
0.04566757 0.05048416 0.150835
0.04501186 0.0530197 0.1519974
0.044367 0.05557383 0.1531246
0.0437332 0.05814552 0.1542177
0.0431106 0.06073382 0.1552775
0.04249934 0.06333779 0.156305
0.0418995 0.06595657 0.1573012
0.04131114 0.06858932 0.1582669
0.04073428 0.07123526 0.159203
0.04016893 0.07389364 0.1601105
0.03961507 0.07656376 0.1609902
0.03907265 0.07924494 0.1618429
0.03854161 0.08193657 0.1626695
0.03802187 0.08463803 0.1634708
0.03751334 0.08734877 0.1642476
0.03701589 0.09006825 0.1650006
0.03652942 0.09279597 0.1657307
0.03605379 0.09553145 0.1664385
0.03558885 0.09827426 0.1671248
0.03513445 0.1010239 0.1677903
0.03469043 0.1037801 0.1684355
0.03425663 0.1065424 0.1690613
0.03383287 0.1093105 0.1696682
0.03341899 0.112084 0.1702569
0.0330148 0.1148626 0.1708279
0.03262012 0.1176461 0.1713818
0.03223476 0.120434 0.1719192
0.03185856 0.1232263 0.1724406
0.03149132 0.1260226 0.1729466
0.03113286 0.1288227 0.1734377
0.03078299 0.1316263 0.1739143
0.03044154 0.1344334 0.1743769
0.03010832 0.1372436 0.174826
0.02978317 0.1400568 0.175262
0.02946589 0.1428729 0.1756854
0.02915633 0.1456916 0.1760965
0.02885431 0.1485129 0.1764957
0.02855966 0.1513365 0.1768835
0.02827224 0.1541624 0.1772601
0.02799187 0.1569905 0.1776259
0.02771841 0.1598205 0.1779813
0.02745171 0.1626524 0.1783265
0.02719162 0.1654861 0.1786618
0.02693801 0.1683216 0.1789877
0.02669074 0.1711586 0.1793042
0.02644968 0.1739972 0.1796117
0.02621471 0.1768372 0.1799105
0.02598571 0.1796785 0.1802007
0.02576256 0.1825212 0.1804826
0.02554516 0.1853651 0.1807564
0.02533339 0.1882102 0.1810223
0.02512717 0.1910564 0.1812806
0.02492639 0.1939037 0.1815313
0.02473097 0.196752 0.1817747
0.02454082 0.1996012 0.1820109
0.02435585 0.2024514 0.1822401
0.024176 0.2053024 0.1824625
0.02400119 0.2081543 0.1826781
0.02383136 0.2110069 0.182887
0.02366643 0.2138603 0.1830895
0.02350636 0.2167144 0.1832857
0.02335109 0.2195692 0.1834755
0.02320056 0.2224247 0.1836592
0.02305473 0.2252808 0.1838368
0.02291356 0.2281375 0.1840085
0.022777 0.2309948 0.1841742
0.02264502 0.2338526 0.1843341
0.02251758 0.2367109 0.1844882
0.02239467 0.2395698 0.1846366
0.02227624 0.2424291 0.1847794
0.02216228 0.2452889 0.1849166
0.02205276 0.2481491 0.1850483
0.02194766 0.2510097 0.1851744
0.02184698 0.2538707 0.1852952
0.0217507 0.2567321 0.1854105
0.0216588 0.2595939 0.1855204
0.02157127 0.2624559 0.1856249
0.02148812 0.2653183 0.1857242
0.02140933 0.268181 0.1858181
0.0213349 0.271044 0.1859067
0.02126484 0.2739073 0.1859901
0.02119913 0.2767708 0.1860682
0.02113777 0.2796346 0.1861411
0.02108078 0.2824985 0.1862087
0.02102816 0.2853627 0.1862711
0.0209799 0.288227 0.1863283
0.020936 0.2910916 0.1863803
0.02089648 0.2939562 0.1864271
0.02086134 0.296821 0.1864687
0.02083058 0.299686 0.1865051
0.02080421 0.302551 0.1865362
0.02078223 0.3054161 0.1865622
0.02076464 0.3082813 0.186583
0.02075144 0.3111466 0.1865986
0.02074264 0.3140119 0.186609
0.02073824 0.3168772 0.1866142
0.02073824 0.3197426 0.1866142
0.02074264 0.3226079 0.186609
0.02075144 0.3254732 0.1865986
0.02076464 0.3283384 0.186583
0.02078223 0.3312036 0.1865622
0.02080421 0.3340688 0.1865362
0.02083059 0.3369338 0.1865051
0.02086134 0.3397987 0.1864687
0.02089648 0.3426635 0.1864271
0.020936 0.3455282 0.1863803
0.0209799 0.3483927 0.1863283
0.02102816 0.3512571 0.1862711
0.02108078 0.3541213 0.1862087
0.02113777 0.3569852 0.1861411
0.02119913 0.359849 0.1860682
0.02126484 0.3627125 0.1859901
0.0213349 0.3655757 0.1859067
0.02140933 0.3684387 0.1858181
0.02148812 0.3713014 0.1857242
0.02157127 0.3741638 0.1856249
0.0216588 0.3770259 0.1855204
0.0217507 0.3798877 0.1854105
0.02184698 0.382749 0.1852952
0.02194766 0.3856101 0.1851744
0.02205276 0.3884707 0.1850483
0.02216228 0.3913309 0.1849166
0.02227624 0.3941907 0.1847794
0.02239467 0.39705 0.1846366
0.02251758 0.3999088 0.1844882
0.02264502 0.4027672 0.1843341
0.022777 0.405625 0.1841742
0.02291356 0.4084823 0.1840085
0.02305473 0.411339 0.1838368
0.02320056 0.4141951 0.1836592
0.02335109 0.4170505 0.1834755
0.02350636 0.4199053 0.1832857
0.02366643 0.4227595 0.1830895
0.02383136 0.4256129 0.182887
0.02400119 0.4284655 0.1826781
0.024176 0.4313174 0.1824625
0.02435585 0.4341684 0.1822401
0.02454082 0.4370185 0.1820109
0.02473097 0.4398678 0.1817747
0.02492639 0.4427161 0.1815313
0.02512717 0.4455633 0.1812806
0.02533339 0.4484095 0.1810223
0.02554516 0.4512546 0.1807564
0.02576256 0.4540985 0.1804826
0.02598571 0.4569412 0.1802007
0.02621471 0.4597826 0.1799105
0.02644968 0.4626226 0.1796117
0.02669074 0.4654612 0.1793042
0.02693801 0.4682982 0.1789877
0.02719162 0.4711336 0.1786618
0.02745171 0.4739674 0.1783265
0.02771841 0.4767993 0.1779813
0.02799187 0.4796293 0.1776259
0.02827224 0.4824573 0.1772601
0.02855966 0.4852832 0.1768835
0.02885431 0.4881069 0.1764957
0.02915633 0.4909281 0.1760965
0.02946589 0.4937469 0.1756854
0.02978317 0.4965629 0.175262
0.03010832 0.4993762 0.174826
0.03044154 0.5021864 0.1743769
0.03078299 0.5049934 0.1739143
0.03113286 0.5077971 0.1734377
0.03149132 0.5105972 0.1729466
0.03185856 0.5133935 0.1724406
0.03223477 0.5161857 0.1719192
0.03262012 0.5189737 0.1713818
0.0330148 0.5217571 0.1708279
0.03341899 0.5245358 0.1702569
0.03383287 0.5273093 0.1696682
0.03425663 0.5300773 0.1690613
0.03469043 0.5328396 0.1684355
0.03513445 0.5355958 0.1677903
0.03558885 0.5383455 0.1671248
0.03605379 0.5410883 0.1664385
0.03652942 0.5438238 0.1657307
0.0370159 0.5465515 0.1650006
0.03751334 0.549271 0.1642476
0.03802187 0.5519817 0.1634708
0.03854161 0.5546832 0.1626695
0.03907265 0.5573748 0.1618429
0.03961507 0.560056 0.1609902
0.04016893 0.5627261 0.1601105
0.04073428 0.5653845 0.159203
0.04131114 0.5680304 0.1582669
0.0418995 0.5706632 0.1573012
0.04249934 0.573282 0.156305
0.0431106 0.575886 0.1552775
0.0437332 0.5784742 0.1542177
0.044367 0.5810459 0.1531246
0.04501186 0.5836001 0.1519974
0.04566757 0.5861356 0.150835
0.04633388 0.5886515 0.1496364
0.04701051 0.5911466 0.1484007
0.04769711 0.5936196 0.147127
0.04839329 0.5960695 0.1458141
0.04909859 0.5984949 0.1444612
0.04981249 0.6008943 0.1430673
0.05053441 0.6032665 0.1416314
0.05126368 0.6056098 0.1401525
0.05199956 0.6079228 0.1386298
0.05274124 0.6102038 0.1370623
0.05348781 0.6124512 0.1354493
0.05423828 0.6146632 0.1337897
0.05499154 0.616838 0.132083
0.0557464 0.6189737 0.1303282
0.05650156 0.6210684 0.1285248
0.05725558 0.62312 0.1266722
0.05800695 0.6251266 0.1247698
0.05875399 0.6270861 0.1228172
0.05949492 0.6289962 0.1208141
0.06022784 0.6308548 0.1187602
0.06095067 0.6326597 0.1166554
0.06166124 0.6344086 0.1144998
0.06235723 0.6360991 0.1122935
0.06303614 0.6377291 0.1100369
0.06369539 0.6392962 0.1077305
0.06433221 0.6407982 0.1053749
0.0649437 0.6422327 0.1029711
0.06552684 0.6435975 0.1005201
0.06607846 0.6448906 0.09802332
0.06659527 0.6461097 0.09548231
0.06707386 0.6472529 0.09289887
0.06751069 0.6483183 0.09027509
0.06790216 0.6493041 0.08761331
0.06824456 0.6502087 0.08491618
0.0685341 0.6510307 0.08218661
0.06876697 0.6517689 0.07942781
0.06893929 0.6524222 0.07664328
0.06904722 0.6529899 0.07383682
0.06908688 0.6534715 0.07101253
0.06905447 0.6538668 0.06817479
0.06894625 0.6541759 0.06532823
0.06875858 0.6543993 0.0624778
0.06848794 0.6545378 0.05962864
0.06813098 0.6545925 0.05678616
0.06768456 0.6545652 0.05395595
0.06714576 0.6544577 0.05114379
0.06651191 0.6542724 0.0483556
0.06578065 0.6540122 0.0455974
0.06494993 0.6536802 0.0428753
0.06401809 0.6532801 0.04019544
0.0629838 0.6528159 0.03756392
0.06184618 0.652292 0.03498681
0.06060474 0.6517132 0.03247008
0.05925947 0.6510846 0.03001954
0.05781077 0.6504116 0.02764078
0.05625952 0.6496999 0.0253392
0.05460708 0.6489556 0.02311986
0.05285524 0.6481846 0.02098753
0.05100625 0.6473935 0.01894658
0.04906281 0.6465886 0.01700101
0.04702803 0.6457764 0.01515435
0.04490541 0.6449635 0.01340971
0.04269883 0.6441564 0.01176969
0.0404125 0.6433615 0.0102364
0.03805093 0.6425852 0.00881145
0.03561892 0.6418336 0.007495947
0.03312146 0.6411127 0.006290481
0.03056376 0.6404283 0.005195144
0.02795114 0.6397857 0.004209543
0.02528904 0.6391901 0.003332814
0.02258296 0.6386464 0.002563645
0.01983842 0.638159 0.001900302
0.0170609 0.637732 0.001340657
0.01425586 0.6373691 0.0008822203
0.01142863 0.6370737 0.0005221729
0.008584445 0.6368487 0.0002574034
0.005728379 0.6366967 8.454261e-05
0.00286533 0.6366198 0
0 0.6366198 0

LINES 349 1047
2 0 1
2 1 2
2 2 3
2 3 4
2 4 5
2 5 6
2 6 7
2 7 8
2 8 9
2 9 10
2 10 11
2 11 12
2 12 13
2 13 14
2 14 15
2 15 16
2 16 17
2 17 18
2 18 19
2 19 20
2 20 21
2 21 22
2 22 23
2 23 24
2 24 25
2 25 26
2 26 27
2 27 28
2 28 29
2 29 30
2 30 31
2 31 32
2 32 33
2 33 34
2 34 35
2 35 36
2 36 37
2 37 38
2 38 39
2 39 40
2 40 41
2 41 42
2 42 43
2 43 44
2 44 45
2 45 46
2 46 47
2 47 48
2 48 49
2 49 50
2 50 51
2 51 52
2 52 53
2 53 54
2 54 55
2 55 56
2 56 57
2 57 58
2 58 59
2 59 60
2 60 61
2 61 62
2 62 63
2 63 64
2 64 65
2 65 66
2 66 67
2 67 68
2 68 69
2 69 70
2 70 71
2 71 72
2 72 73
2 73 74
2 74 75
2 75 76
2 76 77
2 77 78
2 78 79
2 79 80
2 80 81
2 81 82
2 82 83
2 83 84
2 84 85
2 85 86
2 86 87
2 87 88
2 88 89
2 89 90
2 90 91
2 91 92
2 92 93
2 93 94
2 94 95
2 95 96
2 96 97
2 97 98
2 98 99
2 99 100
2 100 101
2 101 102
2 102 103
2 103 104
2 104 105
2 105 106
2 106 107
2 107 108
2 108 109
2 109 110
2 110 111
2 111 112
2 112 113
2 113 114
2 114 115
2 115 116
2 116 117
2 117 118
2 118 119
2 119 120
2 120 121
2 121 122
2 122 123
2 123 124
2 124 125
2 125 126
2 126 127
2 127 128
2 128 129
2 129 130
2 130 131
2 131 132
2 132 133
2 133 134
2 134 135
2 135 136
2 136 137
2 137 138
2 138 139
2 139 140
2 140 141
2 141 142
2 142 143
2 143 144
2 144 145
2 145 146
2 146 147
2 147 148
2 148 149
2 149 150
2 150 151
2 151 152
2 152 153
2 153 154
2 154 155
2 155 156
2 156 157
2 157 158
2 158 159
2 159 160
2 160 161
2 161 162
2 162 163
2 163 164
2 164 165
2 165 166
2 166 167
2 167 168
2 168 169
2 169 170
2 170 171
2 171 172
2 172 173
2 173 174
2 174 175
2 175 176
2 176 177
2 177 178
2 178 179
2 179 180
2 180 181
2 181 182
2 182 183
2 183 184
2 184 185
2 185 186
2 186 187
2 187 188
2 188 189
2 189 190
2 190 191
2 191 192
2 192 193
2 193 194
2 194 195
2 195 196
2 196 197
2 197 198
2 198 199
2 199 200
2 200 201
2 201 202
2 202 203
2 203 204
2 204 205
2 205 206
2 206 207
2 207 208
2 208 209
2 209 210
2 210 211
2 211 212
2 212 213
2 213 214
2 214 215
2 215 216
2 216 217
2 217 218
2 218 219
2 219 220
2 220 221
2 221 222
2 222 223
2 223 224
2 224 225
2 225 226
2 226 227
2 227 228
2 228 229
2 229 230
2 230 231
2 231 232
2 232 233
2 233 234
2 234 235
2 235 236
2 236 237
2 237 238
2 238 239
2 239 240
2 240 241
2 241 242
2 242 243
2 243 244
2 244 245
2 245 246
2 246 247
2 247 248
2 248 249
2 249 250
2 250 251
2 251 252
2 252 253
2 253 254
2 254 255
2 255 256
2 256 257
2 257 258
2 258 259
2 259 260
2 260 261
2 261 262
2 262 263
2 263 264
2 264 265
2 265 266
2 266 267
2 267 268
2 268 269
2 269 270
2 270 271
2 271 272
2 272 273
2 273 274
2 274 275
2 275 276
2 276 277
2 277 278
2 278 279
2 279 280
2 280 281
2 281 282
2 282 283
2 283 284
2 284 285
2 285 286
2 286 287
2 287 288
2 288 289
2 289 290
2 290 291
2 291 292
2 292 293
2 293 294
2 294 295
2 295 296
2 296 297
2 297 298
2 298 299
2 299 300
2 300 301
2 301 302
2 302 303
2 303 304
2 304 305
2 305 306
2 306 307
2 307 308
2 308 309
2 309 310
2 310 311
2 311 312
2 312 313
2 313 314
2 314 315
2 315 316
2 316 317
2 317 318
2 318 319
2 319 320
2 320 321
2 321 322
2 322 323
2 323 324
2 324 325
2 325 326
2 326 327
2 327 328
2 328 329
2 329 330
2 330 331
2 331 332
2 332 333
2 333 334
2 334 335
2 335 336
2 336 337
2 337 338
2 338 339
2 339 340
2 340 341
2 341 342
2 342 343
2 343 344
2 344 345
2 345 346
2 346 347
2 347 348
2 348 349


POINT_DATA 350
SCALARS a FLOAT 1
LOOKUP_TABLE default
0.0005894628
0.0005894628
0.0005894628
0.0005894628
0.0005894628
0.0005894628
0.0005894628
0.0005894628
0.0005894628
0.0005894628
0.0005894628
0.0005894628
0.0005894628
0.0005894628
0.0005894628
0.0005894628
0.0005894628
0.0005894628
0.0005894628
0.0005894628
0.0005894628
0.0005894628
0.0005894628
0.0005894628
0.0005894628
0.0005894628
0.0005894628
0.0005894628
0.0005894628
0.0005894628
0.0005894628
0.0005894628
0.0005894628
0.0005894628
0.0005894628
0.0005894628
0.0005894628
0.0005894628
0.0005894628
0.0005894628
0.0005894628
0.0005894628
0.0005894628
0.0005894628
0.0005894628
0.0005894628
0.0005894628
0.0005894628
0.0005894628
0.0005894628
0.0005894628
0.0005894628
0.0005894628
0.0005894628
0.0005894628
0.0005894628
0.0005894628
0.0005894628
0.0005894628
0.0005894628
0.0005894628
0.0005894628
0.0005894628
0.0005894628
0.0005894628
0.0005894628
0.0005894628
0.0005894628
0.0005894628
0.0005894628
0.0005894628
0.0005894628
0.0005894628
0.0005894628
0.0005894628
0.0005894628
0.0005894628
0.0005894628
0.0005894628
0.0005894628
0.0005894628
0.0005894628
0.0005894628
0.0005894628
0.0005894628
0.0005894628
0.0005894628
0.0005894628
0.0005894628
0.0005894628
0.0005894628
0.0005894628
0.0005894628
0.0005894628
0.0005894628
0.0005894628
0.0005894628
0.0005894628
0.0005894628
0.0005894628
0.0005894628
0.0005894628
0.0005894628
0.0005894628
0.0005894628
0.0005894628
0.0005894628
0.0005894628
0.0005894628
0.0005894628
0.0005894628
0.0005894628
0.0005894628
0.0005894628
0.0005894628
0.0005894628
0.0005894628
0.0005894628
0.0005894628
0.0005894628
0.0005894628
0.0005894628
0.0005894628
0.0005894628
0.0005894628
0.0005894628
0.0005894628
0.0005894628
0.0005894628
0.0005894628
0.0005894628
0.0005894628
0.0005894628
0.0005894628
0.0005894628
0.0005894628
0.0005894628
0.0005894628
0.0005894628
0.0005894628
0.0005894628
0.0005894628
0.0005894628
0.0005894628
0.0005894628
0.0005894628
0.0005894628
0.0005894628
0.0005894628
0.0005894628
0.0005894628
0.0005894628
0.0005894628
0.0005894628
0.0005894628
0.0005894628
0.0005894628
0.0005894628
0.0005894628
0.0005894628
0.0005894628
0.0005894628
0.0005894628
0.0005894628
0.0005894628
0.0005894628
0.0005894628
0.0005894628
0.0005894628
0.0005894628
0.0005894628
0.0005894628
0.0005894628
0.0005894628
0.0005894628
0.0005894628
0.0005894628
0.0005894628
0.0005894628
0.0005894628
0.0005894628
0.0005894628
0.0005894628
0.0005894628
0.0005894628
0.0005894628
0.0005894628
0.0005894628
0.0005894628
0.0005894628
0.0005894628
0.0005894628
0.0005894628
0.0005894628
0.0005894628
0.0005894628
0.0005894628
0.0005894628
0.0005894628
0.0005894628
0.0005894628
0.0005894628
0.0005894628
0.0005894628
0.0005894628
0.0005894628
0.0005894628
0.0005894628
0.0005894628
0.0005894628
0.0005894628
0.0005894628
0.0005894628
0.0005894628
0.0005894628
0.0005894628
0.0005894628
0.0005894628
0.0005894628
0.0005894628
0.0005894628
0.0005894628
0.0005894628
0.0005894628
0.0005894628
0.0005894628
0.0005894628
0.0005894628
0.0005894628
0.0005894628
0.0005894628
0.0005894628
0.0005894628
0.0005894628
0.0005894628
0.0005894628
0.0005894628
0.0005894628
0.0005894628
0.0005894628
0.0005894628
0.0005894628
0.0005894628
0.0005894628
0.0005894628
0.0005894628
0.0005894628
0.0005894628
0.0005894628
0.0005894628
0.0005894628
0.0005894628
0.0005894628
0.0005894628
0.0005894628
0.0005894628
0.0005894628
0.0005894628
0.0005894628
0.0005894628
0.0005894628
0.0005894628
0.0005894628
0.0005894628
0.0005894628
0.0005894628
0.0005894628
0.0005894628
0.0005894628
0.0005894628
0.0005894628
0.0005894628
0.0005894628
0.0005894628
0.0005894628
0.0005894628
0.0005894628
0.0005894628
0.0005894628
0.0005894628
0.0005894628
0.0005894628
0.0005894628
0.0005894628
0.0005894628
0.0005894628
0.0005894628
0.0005894628
0.0005894628
0.0005894628
0.0005894628
0.0005894628
0.0005894628
0.0005894628
0.0005894628
0.0005894628
0.0005894628
0.0005894628
0.0005894628
0.0005894628
0.0005894628
0.0005894628
0.0005894628
0.0005894628
0.0005894628
0.0005894628
0.0005894628
0.0005894628
0.0005894628
0.0005894628
0.0005894628
0.0005894628
0.0005894628
0.0005894628
0.0005894628
0.0005894628
0.0005894628
0.0005894628
0.0005894628
0.0005894628
0.0005894628
0.0005894628
0.0005894628
0.0005894628
0.0005894628
0.0005894628
0.0005894628
0.0005894628
0.0005894628
0.0005894628
0.0005894628
0.0005894628
0.0005894628
0.0005894628
0.0005894628
0.0005894628
0.0005894628
0.0005894628
0.0005894628
0.0005894628
0.0005894628
0.0005894628
0.0005894628
0.0005894628
0.0005894628
0.0005894628
0.0005894628
0.0005894628
0.0005894628
0.0005894628


SCALARS b FLOAT 1
LOOKUP_TABLE default
0.04420971
0.04420971
0.04420971
0.04420971
0.04420971
0.04420971
0.04420971
0.04420971
0.04420971
0.04420971
0.04420971
0.04420971
0.04420971
0.04420971
0.04420971
0.04420971
0.04420971
0.04420971
0.04420971
0.04420971
0.04420971
0.04420971
0.04420971
0.04420971
0.04420971
0.04420971
0.04420971
0.04420971
0.04420971
0.04420971
0.04420971
0.04420971
0.04420971
0.04420971
0.04420971
0.04420971
0.04420971
0.04420971
0.04420971
0.04420971
0.04420971
0.04420971
0.04420971
0.04420971
0.04420971
0.04420971
0.04420971
0.04420971
0.04420971
0.04420971
0.04420971
0.04420971
0.04420971
0.04420971
0.04420971
0.04420971
0.04420971
0.04420971
0.04420971
0.04420971
0.04420971
0.04420971
0.04420971
0.04420971
0.04420971
0.04420971
0.04420971
0.04420971
0.04420971
0.04420971
0.04420971
0.04420971
0.04420971
0.04420971
0.04420971
0.04420971
0.04420971
0.04420971
0.04420971
0.04420971
0.04420971
0.04420971
0.04420971
0.04420971
0.04420971
0.04420971
0.04420971
0.04420971
0.04420971
0.04420971
0.04420971
0.04420971
0.04420971
0.04420971
0.04420971
0.04420971
0.04420971
0.04420971
0.04420971
0.04420971
0.04420971
0.04420971
0.04420971
0.04420971
0.04420971
0.04420971
0.04420971
0.04420971
0.04420971
0.04420971
0.04420971
0.04420971
0.04420971
0.04420971
0.04420971
0.04420971
0.04420971
0.04420971
0.04420971
0.04420971
0.04420971
0.04420971
0.04420971
0.04420971
0.04420971
0.04420971
0.04420971
0.04420971
0.04420971
0.04420971
0.04420971
0.04420971
0.04420971
0.04420971
0.04420971
0.04420971
0.04420971
0.04420971
0.04420971
0.04420971
0.04420971
0.04420971
0.04420971
0.04420971
0.04420971
0.04420971
0.04420971
0.04420971
0.04420971
0.04420971
0.04420971
0.04420971
0.04420971
0.04420971
0.04420971
0.04420971
0.04420971
0.04420971
0.04420971
0.04420971
0.04420971
0.04420971
0.04420971
0.04420971
0.04420971
0.04420971
0.04420971
0.04420971
0.04420971
0.04420971
0.04420971
0.04420971
0.04420971
0.04420971
0.04420971
0.04420971
0.04420971
0.04420971
0.04420971
0.04420971
0.04420971
0.04420971
0.04420971
0.04420971
0.04420971
0.04420971
0.04420971
0.04420971
0.04420971
0.04420971
0.04420971
0.04420971
0.04420971
0.04420971
0.04420971
0.04420971
0.04420971
0.04420971
0.04420971
0.04420971
0.04420971
0.04420971
0.04420971
0.04420971
0.04420971
0.04420971
0.04420971
0.04420971
0.04420971
0.04420971
0.04420971
0.04420971
0.04420971
0.04420971
0.04420971
0.04420971
0.04420971
0.04420971
0.04420971
0.04420971
0.04420971
0.04420971
0.04420971
0.04420971
0.04420971
0.04420971
0.04420971
0.04420971
0.04420971
0.04420971
0.04420971
0.04420971
0.04420971
0.04420971
0.04420971
0.04420971
0.04420971
0.04420971
0.04420971
0.04420971
0.04420971
0.04420971
0.04420971
0.04420971
0.04420971
0.04420971
0.04420971
0.04420971
0.04420971
0.04420971
0.04420971
0.04420971
0.04420971
0.04420971
0.04420971
0.04420971
0.04420971
0.04420971
0.04420971
0.04420971
0.04420971
0.04420971
0.04420971
0.04420971
0.04420971
0.04420971
0.04420971
0.04420971
0.04420971
0.04420971
0.04420971
0.04420971
0.04420971
0.04420971
0.04420971
0.04420971
0.04420971
0.04420971
0.04420971
0.04420971
0.04420971
0.04420971
0.04420971
0.04420971
0.04420971
0.04420971
0.04420971
0.04420971
0.04420971
0.04420971
0.04420971
0.04420971
0.04420971
0.04420971
0.04420971
0.04420971
0.04420971
0.04420971
0.04420971
0.04420971
0.04420971
0.04420971
0.04420971
0.04420971
0.04420971
0.04420971
0.04420971
0.04420971
0.04420971
0.04420971
0.04420971
0.04420971
0.04420971
0.04420971
0.04420971
0.04420971
0.04420971
0.04420971
0.04420971
0.04420971
0.04420971
0.04420971
0.04420971
0.04420971
0.04420971
0.04420971
0.04420971
0.04420971
0.04420971
0.04420971
0.04420971
0.04420971
0.04420971
0.04420971
0.04420971
0.04420971
0.04420971
0.04420971
0.04420971
0.04420971
0.04420971
0.04420971
0.04420971
0.04420971
0.04420971
0.04420971
0.04420971
0.04420971
0.04420971
0.04420971


VECTORS d1 FLOAT
0 -0.685005 0.7285384
-0.03988292 -0.6600108 0.7501967
-0.08029819 -0.6328982 0.7700598
-0.121109 -0.6036804 0.7879737
-0.1621678 -0.5723861 0.8037884
-0.2033173 -0.5390594 0.8173598
-0.2443911 -0.503761 0.8285517
-0.285215 -0.4665682 0.8372374
-0.3256088 -0.4275751 0.8433021
-0.3653873 -0.3868928 0.846644
-0.4043623 -0.3446484 0.8471769
-0.4423445 -0.3009851 0.8448309
-0.4791457 -0.2560606 0.8395549
-0.5145804 -0.2100467 0.8313167
-0.5484684 -0.1631271 0.8201049
-0.5806366 -0.115496 0.8059291
-0.6109215 -0.06735654 0.7888206
-0.6391707 -0.01891819 0.7688322
-0.665245 0.02960513 0.7460379
-0.6890202 0.07799751 0.7205328
-0.7103883 0.1260434 0.6924316
-0.7292589 0.1735301 0.6618676
-0.7455602 0.2202498 0.6289913
-0.7592394 0.2660022 0.5939683
-0.7702634 0.3105966 0.5569777
-0.7786185 0.3538534 0.5182094
-0.7843105 0.3956064 0.4778625
-0.787364 0.4357039 0.4361422
-0.7878214 0.4740101 0.3932581
-0.7857422 0.5104059 0.3494211
-0.7812015 0.5447896 0.3048419
-0.7742888 0.5770773 0.259728
-0.7651062 0.6072031 0.2142825
-0.7537668 0.6351184 0.1687015
-0.7403932 0.6607922 0.123173
-0.7251153 0.6842099 0.07787506
-0.7080691 0.7053728 0.03297495
-0.6893946 0.7242968 -0.01137205
-0.6692341 0.7410116 -0.05502323
-0.6477313 0.7555592 -0.09784906
-0.625029 0.7679931 -0.1397334
-0.6012686 0.7783761 -0.1805735
-0.5765883 0.7867799 -0.2202801
-0.5511226 0.7932832 -0.2587772
-0.5250011 0.7979706 -0.2960012
-0.4983479 0.8009315 -0.3319009
-0.4712808 0.8022584 -0.3664367
-0.4439112 0.8020467 -0.3995798
-0.4163436 0.8003926 -0.4313115
-0.3886753 0.7973933 -0.4616227
-0.3609963 0.7931451 -0.4905124
-0.3333895 0.7877437 -0.5179878
-0.3059303 0.7812827 -0.5440626
-0.2786874 0.7738534 -0.5687567
-0.2517223 0.7655446 -0.5920957
-0.2250901 0.7564419 -0.6141092
-0.1988394 0.7466272 -0.6348312
-0.1730128 0.7361791 -0.6542988
-0.1476472 0.7251721 -0.6725517
-0.1227741 0.7136769 -0.6896316
-0.09841991 0.7017602 -0.7055822
-0.07460663 0.6894845 -0.7204477
-0.05135177 0.6769086 -0.7342736
-0.02866895 0.6640871 -0.7471053
-0.0065682 0.6510709 -0.7589885
0.01494373 0.637907 -0.7699684
0.03586305 0.6246389 -0.7800898
0.05618861 0.6113065 -0.7893967
0.07592165 0.5979465 -0.7979323
0.09506548 0.5845923 -0.8057384
0.1136253 0.5712743 -0.8128561
0.1316079 0.55802 -0.8193247
0.1490216 0.5448544 -0.8251826
0.1658756 0.5317996 -0.8304664
0.1821806 0.5188757 -0.8352115
0.1979478 0.5061003 -0.8394517
0.2131893 0.4934892 -0.8432193
0.2279176 0.4810561 -0.8465451
0.242146 0.4688129 -0.8494585
0.2558876 0.45677 -0.8519875
0.2691564 0.4449362 -0.8541584
0.281966 0.433319 -0.8559964
0.2943304 0.4219245 -0.8575251
0.3062635 0.4107576 -0.858767
0.3177793 0.3998224 -0.8597432
0.3288914 0.3891216 -0.8604736
0.3396136 0.3786575 -0.8609768
0.3499594 0.3684312 -0.8612705
0.3599419 0.3584433 -0.8613711
0.3695742 0.3486936 -0.8612942
0.3788691 0.3391814 -0.8610541
0.3878391 0.3299055 -0.8606644
0.3964963 0.3208641 -0.8601377
0.4048526 0.312055 -0.859486
0.4129195 0.3034756 -0.85872
0.4207083 0.2951231 -0.8578501
0.4282299 0.2869943 -0.8568859
0.4354949 0.2790856 -0.8558361
0.4425134 0.2713934 -0.854709
0.4492955 0.2639138 -0.8535122
0.4558506 0.2566426 -0.8522528
0.462188 0.2495755 -0.8509373
0.4683166 0.2427082 -0.8495718
0.474245 0.2360361 -0.8481619
0.4799815 0.2295545 -0.8467127
0.4855341 0.2232588 -0.8452291
0.4909103 0.2171441 -0.8437153
0.4961177 0.2112056 -0.8421754
0.5011631 0.2054383 -0.8406133
0.5060533 0.1998373 -0.8390322
0.5107949 0.1943977 -0.8374354
0.515394 0.1891143 -0.8358258
0.5198566 0.1839823 -0.834206
0.5241882 0.1789966 -0.8325785
0.5283943 0.1741522 -0.8309455
0.5324799 0.1694442 -0.8293092
0.53645 0.1648676 -0.8276715
0.5403091 0.1604175 -0.8260341
0.5440616 0.1560891 -0.8243986
0.5477117 0.1518776 -0.8227667
0.5512633 0.1477782 -0.8211397
0.5547201 0.1437863 -0.8195189
0.5580854 0.1398973 -0.8179055
0.5613627 0.1361066 -0.8163007
0.564555 0.13241 -0.8147056
0.5676652 0.128803 -0.8131212
0.5706958 0.1252814 -0.8115484
0.5736495 0.1218411 -0.8099883
0.5765286 0.1184781 -0.8084415
0.5793352 0.1151885 -0.8069091
0.5820713 0.1119685 -0.8053918
0.5847389 0.1088144 -0.8038905
0.5873395 0.1057226 -0.8024058
0.5898747 0.1026897 -0.8009386
0.5923461 0.09971227 -0.7994896
0.5947548 0.0967871 -0.7980595
0.5971021 0.09391106 -0.7966491
0.599389 0.09108111 -0.7952591
0.6016164 0.08829434 -0.7938903
0.6037853 0.08554792 -0.7925433
0.6058962 0.08283916 -0.791219
0.6079498 0.08016544 -0.7899181
0.6099467 0.07752424 -0.7886413
0.6118872 0.07491316 -0.7873894
0.6137718 0.07232988 -0.7861632
0.6156006 0.06977217 -0.7849636
0.6173738 0.06723791 -0.7837912
0.6190914 0.06472506 -0.7826471
0.6207535 0.06223167 -0.781532
0.62236 0.0597559 -0.7804468
0.6239107 0.05729597 -0.7793924
0.6254054 0.05485021 -0.7783698
0.6268437 0.05241703 -0.7773799
0.6282252 0.04999493 -0.7764236
0.6295495 0.04758251 -0.775502
0.6308161 0.04517845 -0.774616
0.6320244 0.04278152 -0.7737667
0.6331738 0.04039058 -0.7729551
0.6342636 0.03800459 -0.7721822
0.635293 0.03562259 -0.7714492
0.6362613 0.03324373 -0.7707571
0.6371677 0.03086723 -0.7701068
0.6380114 0.02849243 -0.7694996
0.6387915 0.02611874 -0.7689364
0.6395073 0.02374567 -0.7684182
0.6401579 0.02137282 -0.767946
0.6407425 0.01899987 -0.7675207
0.6412604 0.0166266 -0.7671432
0.6417108 0.01425286 -0.7668142
0.6420931 0.01187856 -0.7665346
0.6424068 0.009503688 -0.7663049
0.6426512 0.007128291 -0.7661257
0.6428261 0.004752455 -0.7659974
0.6429312 0.002376307 -0.7659203
0.6429662 -3.35729e-09 -0.7658945
0.6429312 -0.002376314 -0.7659203
0.6428261 -0.004752462 -0.7659974
0.6426512 -0.007128297 -0.7661257
0.6424068 -0.009503694 -0.7663049
0.6420931 -0.01187856 -0.7665346
0.6417108 -0.01425286 -0.7668142
0.6412604 -0.01662661 -0.7671432
0.6407425 -0.01899988 -0.7675207
0.6401579 -0.02137282 -0.767946
0.6395073 -0.02374567 -0.7684182
0.6387915 -0.02611875 -0.7689364
0.6380114 -0.02849244 -0.7694996
0.6371677 -0.03086724 -0.7701068
0.6362613 -0.03324374 -0.7707571
0.635293 -0.0356226 -0.7714492
0.6342636 -0.03800459 -0.7721822
0.6331738 -0.04039059 -0.7729551
0.6320244 -0.04278152 -0.7737667
0.6308161 -0.04517846 -0.774616
0.6295495 -0.04758252 -0.775502
0.6282252 -0.04999494 -0.7764236
0.6268437 -0.05241703 -0.7773799
0.6254054 -0.05485021 -0.7783698
0.6239107 -0.05729597 -0.7793924
0.62236 -0.0597559 -0.7804468
0.6207535 -0.06223168 -0.781532
0.6190914 -0.06472507 -0.7826471
0.6173738 -0.06723792 -0.7837912
0.6156006 -0.06977218 -0.7849636
0.6137718 -0.07232988 -0.7861632
0.6118872 -0.07491317 -0.7873894
0.6099467 -0.07752425 -0.7886413
0.6079498 -0.08016544 -0.7899181
0.6058962 -0.08283917 -0.791219
0.6037853 -0.08554793 -0.7925433
0.6016164 -0.08829434 -0.7938903
0.599389 -0.09108111 -0.7952591
0.5971021 -0.09391106 -0.7966491
0.5947548 -0.09678711 -0.7980595
0.5923461 -0.09971228 -0.7994896
0.5898747 -0.1026897 -0.8009386
0.5873395 -0.1057226 -0.8024058
0.5847389 -0.1088144 -0.8038905
0.5820713 -0.1119685 -0.8053918
0.5793352 -0.1151885 -0.8069091
0.5765286 -0.1184781 -0.8084415
0.5736495 -0.1218411 -0.8099883
0.5706958 -0.1252814 -0.8115484
0.5676652 -0.128803 -0.8131212