# vtk DataFile Version 2.0
Written badly by Kevin Korner
ASCII
DATASET POLYDATA
POINTS 350 FLOAT
0 0 0
0.00286533 0 0
0.005729347 -3.431015e-05 7.960826e-05
0.008589394 -0.0001008131 0.000240301
0.01144276 -0.000197274 0.0004833935
0.01428671 -0.0003213466 0.0008100307
0.01711846 -0.000470579 0.001221179
0.01993522 -0.0006424213 0.001717616
0.02273419 -0.000834233 0.002299929
0.02551257 -0.001043292 0.002968503
0.02826759 -0.001266804 0.003723518
0.03099647 -0.001501913 0.004564947
0.03369652 -0.001745709 0.005492553
0.03636504 -0.001995242 0.006505884
0.03899942 -0.002247532 0.007604277
0.04159713 -0.002499581 0.008786859
0.0441557 -0.002748383 0.01005255
0.04667274 -0.002990939 0.01140005
0.04914599 -0.003224266 0.01282789
0.05157327 -0.003445409 0.01433438
0.05395254 -0.003651453 0.01591765
0.05628186 -0.003839536 0.01757566
0.05855944 -0.004006855 0.01930619
0.06078362 -0.004150683 0.02110687
0.06295287 -0.004268372 0.02297519
0.06506582 -0.004357366 0.02490849
0.06712124 -0.004415208 0.02690399
0.06911805 -0.00443955 0.0289588
0.07105533 -0.004428157 0.03106995
0.0729323 -0.004378914 0.03323436
0.07474833 -0.004289832 0.0354489
0.07650295 -0.00415905 0.03771039
0.07819584 -0.003984843 0.04001557
0.07982682 -0.003765619 0.0423612
0.08139583 -0.003499925 0.044744
0.08290298 -0.003186447 0.04716068
0.08434849 -0.002824009 0.04960797
0.08573272 -0.002411572 0.05208263
0.08705614 -0.001948236 0.05458143
0.08831933 -0.001433233 0.0571012
0.08952298 -0.0008659281 0.05963881
0.0906679 -0.0002458154 0.06219121
0.09175497 0.0004274867 0.0647554
0.09278516 0.001154239 0.06732846
0.09375953 0.001934586 0.06990756
0.0946792 0.00276856 0.07248997
0.09554535 0.003656091 0.07507303
0.09635924 0.004597004 0.07765419
0.09712215 0.005591032 0.080231
0.09783542 0.006637819 0.08280114
0.09850044 0.007736925 0.08536235
0.09911861 0.008887832 0.08791253
0.09969135 0.01008995 0.09044965
0.1002201 0.01134263 0.09297182
0.1007064 0.01264516 0.09547723
0.1011516 0.01399676 0.09796421
0.1015572 0.01539662 0.1004312
0.1019247 0.01684388 0.1028767
0.1022556 0.01833765 0.1052994
0.1025513 0.01987698 0.1076979
0.1028132 0.02146093 0.1100712
0.1030428 0.0230885 0.1124182
0.1032415 0.02475869 0.114738
0.1034106 0.02647049 0.1170295
0.1035516 0.02822285 0.1192921
0.1036656 0.03001475 0.1215251
0.1037541 0.03184513 0.1237278
0.1038183 0.03371295 0.1258998
0.1038594 0.03561716 0.1280404
0.1038787 0.03755672 0.1301494
0.1038772 0.0395306 0.1322264
0.1038562 0.04153776 0.1342712
0.1038168 0.04357719 0.1362834
0.1037599 0.04564789 0.1382631
0.1036867 0.04774885 0.1402101
0.103598 0.0498791 0.1421243
0.103495 0.05203769 0.1440058
0.1033785 0.05422366 0.1458546
0.1032493 0.05643609 0.1476708
0.1031084 0.05867408 0.1494545
0.1029566 0.06093674 0.1512059
0.1027946 0.06322321 0.1529252
0.1026231 0.06553263 0.1546126
0.102443 0.06786419 0.1562684
0.1022549 0.07021708 0.1578927
0.1020595 0.07259053 0.1594861
0.1018573 0.07498377 0.1610486
0.101649 0.07739606 0.1625808
0.1014351 0.0798267 0.1640829
0.1012162 0.08227499 0.1655554
0.1009928 0.08474026 0.1669985
0.1007654 0.08722185 0.1684128
0.1005345 0.08971914 0.1697985
0.1003004 0.09223152 0.1711562
0.1000637 0.0947584 0.1724862
0.09982461 0.09729921 0.173789
0.09958362 0.0998534 0.175065
0.09934105 0.1024204 0.1763146
0.09909724 0.1049998 0.1775383
0.09885249 0.1075911 0.1787365
0.09860711 0.1101937 0.1799097
0.09836137 0.1128072 0.1810582
0.09811552 0.1154312 0.1821826
0.09786983 0.1180653 0.1832832
0.09762451 0.120709 0.1843605
0.09737978 0.123362 0.185415
0.09713584 0.1260239 0.186447
0.09689289 0.1286943 0.1874569
0.0966511 0.1313729 0.1884453
0.09641064 0.1340594 0.1894124
0.09617166 0.1367533 0.1903587
0.09593431 0.1394545 0.1912846
0.09569871 0.1421627 0.1921905
0.09546501 0.1448774 0.1930768
0.0952333 0.1475986 0.1939437
0.09500371 0.1503259 0.1947918
0.09477633 0.1530591 0.1956213
0.09455125 0.1557979 0.1964326
0.09432857 0.1585422 0.197226
0.09410837 0.1612917 0.1980019
0.09389072 0.1640462 0.1987606
0.0936757 0.1668055 0.1995024
0.09346337 0.1695694 0.2002275
0.09325379 0.1723377 0.2009363
0.09304703 0.1751104 0.201629
0.09284313 0.1778871 0.2023059
0.09264215 0.1806678 0.2029673
0.09244414 0.1834523 0.2036134
0.09224915 0.1862405 0.2042444
0.09205722 0.1890322 0.2048605
0.09186839 0.1918273 0.205462
0.09168271 0.1946257 0.2060491
0.09150023 0.1974273 0.2066219
0.09132097 0.2002319 0.2071806
0.09114498 0.2030394 0.2077253
0.0909723 0.2058498 0.2082563
0.09080296 0.208663 0.2087737
0.09063701 0.2114788 0.2092775
0.09047449 0.2142971 0.209768
0.09031544 0.217118 0.2102451
0.0901599 0.2199412 0.2107091
0.0900079 0.2227667 0.21116
0.0898595 0.2255945 0.2115979
0.08971473 0.2284245 0.2120228
0.08957364 0.2312565 0.2124348
0.08943628 0.2340906 0.212834
0.08930268 0.2369266 0.2132203
0.08917291 0.2397645 0.2135938
0.08904702 0.2426043 0.2139546
0.08892504 0.2454458 0.2143026
0.08880703 0.248289 0.2146379
0.08869306 0.2511338 0.2149604
0.08858317 0.2539802 0.2152701
0.08847742 0.2568282 0.215567
0.08837586 0.2596776 0.215851
0.08827857 0.2625284 0.2161222
0.08818559 0.2653805 0.2163805
0.08809699 0.268234 0.2166258
0.08801283 0.2710886 0.2168581
0.08793318 0.2739444 0.2170773
0.0878581 0.2768014 0.2172833
0.08778764 0.2796593 0.2174761
0.08772188 0.2825183 0.2176556
0.08766088 0.2853781 0.2178217
0.0876047 0.2882388 0.2179744
0.08755339 0.2911003 0.2181135
0.08750702 0.2939625 0.218239
0.08746565 0.2968254 0.2183508
0.08742932 0.2996888 0.2184488
0.08739808 0.3025527 0.2185329
0.08737198 0.3054171 0.2186032
0.08735105 0.3082818 0.2186595
0.08733532 0.3111468 0.2187017
0.08732483 0.3140119 0.2187299
0.08731957 0.3168772 0.218744
0.08731957 0.3197426 0.218744
0.08732483 0.3226078 0.2187299
0.08733532 0.325473 0.2187017
0.08735105 0.328338 0.2186595
0.08737198 0.3312027 0.2186032
0.08739808 0.334067 0.2185329
0.08742932 0.336931 0.2184488
0.08746565 0.3397944 0.2183508
0.08750702 0.3426572 0.218239
0.08755339 0.3455194 0.2181135
0.0876047 0.3483809 0.2179744
0.08766088 0.3512416 0.2178217
0.08772188 0.3541015 0.2176556
0.08778764 0.3569604 0.2174761
0.0878581 0.3598184 0.2172833
0.08793318 0.3626753 0.2170773
0.08801283 0.3655312 0.2168581
0.08809699 0.3683858 0.2166258
0.08818559 0.3712393 0.2163805
0.08827857 0.3740914 0.2161222
0.08837586 0.3769422 0.215851
0.08847742 0.3797916 0.215567
0.08858317 0.3826396 0.2152701
0.08869306 0.385486 0.2149604
0.08880703 0.3883308 0.2146379
0.08892504 0.391174 0.2143026
0.08904702 0.3940155 0.2139546
0.08917291 0.3968553 0.2135938
0.08930268 0.3996932 0.2132203
0.08943628 0.4025292 0.212834
0.08957364 0.4053633 0.2124348
0.08971473 0.4081953 0.2120228
0.0898595 0.4110252 0.2115979
0.0900079 0.413853 0.21116
0.0901599 0.4166786 0.2107091
0.09031544 0.4195018 0.2102451
0.09047449 0.4223226 0.209768
0.09063701 0.425141 0.2092775
0.09080296 0.4279568 0.2087737
0.0909723 0.4307699 0.2082563
0.09114498 0.4335803 0.2077253
0.09132097 0.4363879 0.2071806
0.09150023 0.4391925 0.2066219
0.09168271 0.4419941 0.2060491
0.09186839 0.4447925 0.205462
0.09205722 0.4475876 0.2048605
0.09224915 0.4503793 0.2042444
0.09244414 0.4531675 0.2036134
0.09264215 0.455952 0.2029673
0.09284313 0.4587327 0.2023059
0.09304703 0.4615094 0.201629
0.09325379 0.464282 0.2009363
0.09346337 0.4670504 0.2002275
0.0936757 0.4698143 0.1995024
0.09389072 0.4725736 0.1987606
0.09410837 0.4753281 0.1980019
0.09432857 0.4780776 0.197226
0.09455125 0.4808218 0.1964326
0.09477633 0.4835607 0.1956213
0.09500371 0.4862939 0.1947918
0.0952333 0.4890212 0.1939437
0.09546501 0.4917423 0.1930768
0.09569871 0.4944571 0.1921905
0.09593431 0.4971653 0.1912846
0.09617166 0.4998665 0.1903587
0.09641064 0.5025604 0.1894124
0.0966511 0.5052469 0.1884453
0.09689289 0.5079254 0.1874569
0.09713584 0.5105959 0.186447
0.09737978 0.5132577 0.185415
0.09762451 0.5159107 0.1843605
0.09786983 0.5185545 0.1832832
0.09811552 0.5211885 0.1821826
0.09836137 0.5238125 0.1810582
0.09860711 0.5264261 0.1799097
0.09885249 0.5290287 0.1787365
0.09909724 0.5316199 0.1775383
0.09934105 0.5341993 0.1763146
0.09958362 0.5367664 0.175065
0.09982461 0.5393206 0.173789
0.1000637 0.5418614 0.1724862
0.1003004 0.5443882 0.1711562
0.1005345 0.5469006 0.1697985
0.1007654 0.5493979 0.1684128
0.1009928 0.5518795 0.1669985
0.1012162 0.5543448 0.1655554
0.1014351 0.5567931 0.1640829
0.101649 0.5592237 0.1625808
0.1018573 0.561636 0.1610486
0.1020595 0.5640292 0.1594861
0.1022549 0.5664027 0.1578927
0.102443 0.5687556 0.1562684
0.1026231 0.5710871 0.1546126
0.1027946 0.5733966 0.1529252
0.1029566 0.575683 0.1512059
0.1031084 0.5779457 0.1494545
0.1032493 0.5801837 0.1476708
0.1033785 0.5823961 0.1458546
0.103495 0.5845821 0.1440058
0.103598 0.5867407 0.1421243
0.1036867 0.5888709 0.1402101
0.1037599 0.5909719 0.1382631
0.1038168 0.5930426 0.1362834
0.1038562 0.595082 0.1342712
0.1038772 0.5970892 0.1322264
0.1038787 0.599063 0.1301494
0.1038594 0.6010026 0.1280404
0.1038183 0.6029068 0.1258998
0.1037541 0.6047746 0.1237278
0.1036656 0.606605 0.1215251
0.1035516 0.6083969 0.1192921
0.1034106 0.6101493 0.1170295
0.1032415 0.6118611 0.114738
0.1030428 0.6135313 0.1124182
0.1028132 0.6151588 0.1100712
0.1025513 0.6167428 0.1076979
0.1022556 0.6182821 0.1052994
0.1019247 0.6197759 0.1028767
0.1015572 0.6212232 0.1004312
0.1011516 0.622623 0.09796421
0.1007064 0.6239746 0.09547723
0.1002201 0.6252771 0.09297182
0.09969135 0.6265298 0.09044965
0.09911861 0.6277319 0.08791253
0.09850044 0.6288828 0.08536235
0.09783542 0.629982 0.08280114
0.09712215 0.6310287 0.080231
0.09635924 0.6320228 0.07765419
0.09554535 0.6329637 0.07507303
0.0946792 0.6338512 0.07248997
0.09375953 0.6346852 0.06990756
0.09278516 0.6354655 0.06732846
0.09175497 0.6361923 0.0647554
0.0906679 0.6368656 0.06219121
0.08952298 0.6374857 0.05963881
0.08831933 0.638053 0.0571012
0.08705614 0.638568 0.05458143
0.08573272 0.6390313 0.05208263
0.08434849 0.6394438 0.04960797
0.08290298 0.6398062 0.04716068
0.08139583 0.6401197 0.044744
0.07982682 0.6403854 0.0423612
0.07819584 0.6406046 0.04001557
0.07650295 0.6407788 0.03771039
0.07474833 0.6409096 0.0354489
0.0729323 0.6409987 0.03323436
0.07105533 0.6410479 0.03106995
0.06911805 0.6410593 0.0289588
0.06712124 0.641035 0.02690399
0.06506582 0.6409771 0.02490849
0.06295287 0.6408881 0.02297519
0.06078362 0.6407705 0.02110687
0.05855944 0.6406266 0.01930619
0.05628186 0.6404593 0.01757566
0.05395254 0.6402712 0.01591765
0.05157327 0.6400652 0.01433438
0.04914599 0.639844 0.01282789
0.04667274 0.6396107 0.01140005
0.0441557 0.6393682 0.01005255
0.04159713 0.6391194 0.008786859
0.03899942 0.6388673 0.007604277
0.03636504 0.638615 0.006505884
0.03369652 0.6383655 0.005492553
0.03099647 0.6381217 0.004564948
0.02826759 0.6378866 0.003723518
0.02551257 0.6376631 0.002968503
0.02273419 0.637454 0.002299929
0.01993522 0.6372622 0.001717616
0.01711846 0.6370904 0.001221179
0.01428671 0.6369411 0.0008100307
0.01144276 0.636817 0.0004833935
0.008589394 0.6367206 0.000240301
0.005729347 0.6366541 7.960826e-05
0.00286533 0.6366198 0
0 0.6366198 0

LINES 349 1047
2 0 1
2 1 2
2 2 3
2 3 4
2 4 5
2 5 6
2 6 7
2 7 8
2 8 9
2 9 10
2 10 11
2 11 12
2 12 13
2 13 14
2 14 15
2 15 16
2 16 17
2 17 18
2 18 19
2 19 20
2 20 21
2 21 22
2 22 23
2 23 24
2 24 25
2 25 26
2 26 27
2 27 28
2 28 29
2 29 30
2 30 31
2 31 32
2 32 33
2 33 34
2 34 35
2 35 36
2 36 37
2 37 38
2 38 39
2 39 40
2 40 41
2 41 42
2 42 43
2 43 44
2 44 45
2 45 46
2 46 47
2 47 48
2 48 49
2 49 50
2 50 51
2 51 52
2 52 53
2 53 54
2 54 55
2 55 56
2 56 57
2 57 58
2 58 59
2 59 60
2 60 61
2 61 62
2 62 63
2 63 64
2 64 65
2 65 66
2 66 67
2 67 68
2 68 69
2 69 70
2 70 71
2 71 72
2 72 73
2 73 74
2 74 75
2 75 76
2 76 77
2 77 78
2 78 79
2 79 80
2 80 81
2 81 82
2 82 83
2 83 84
2 84 85
2 85 86
2 86 87
2 87 88
2 88 89
2 89 90
2 90 91
2 91 92
2 92 93
2 93 94
2 94 95
2 95 96
2 96 97
2 97 98
2 98 99
2 99 100
2 100 101
2 101 102
2 102 103
2 103 104
2 104 105
2 105 106
2 106 107
2 107 108
2 108 109
2 109 110
2 110 111
2 111 112
2 112 113
2 113 114
2 114 115
2 115 116
2 116 117
2 117 118
2 118 119
2 119 120
2 120 121
2 121 122
2 122 123
2 123 124
2 124 125
2 125 126
2 126 127
2 127 128
2 128 129
2 129 130
2 130 131
2 131 132
2 132 133
2 133 134
2 134 135
2 135 136
2 136 137
2 137 138
2 138 139
2 139 140
2 140 141
2 141 142
2 142 143
2 143 144
2 144 145
2 145 146
2 146 147
2 147 148
2 148 149
2 149 150
2 150 151
2 151 152
2 152 153
2 153 154
2 154 155
2 155 156
2 156 157
2 157 158
2 158 159
2 159 160
2 160 161
2 161 162
2 162 163
2 163 164
2 164 165
2 165 166
2 166 167
2 167 168
2 168 169
2 169 170
2 170 171
2 171 172
2 172 173
2 173 174
2 174 175
2 175 176
2 176 177
2 177 178
2 178 179
2 179 180
2 180 181
2 181 182
2 182 183
2 183 184
2 184 185
2 185 186
2 186 187
2 187 188
2 188 189
2 189 190
2 190 191
2 191 192
2 192 193
2 193 194
2 194 195
2 195 196
2 196 197
2 197 198
2 198 199
2 199 200
2 200 201
2 201 202
2 202 203
2 203 204
2 204 205
2 205 206
2 206 207
2 207 208
2 208 209
2 209 210
2 210 211
2 211 212
2 212 213
2 213 214
2 214 215
2 215 216
2 216 217
2 217 218
2 218 219
2 219 220
2 220 221
2 221 222
2 222 223
2 223 224
2 224 225
2 225 226
2 226 227
2 227 228
2 228 229
2 229 230
2 230 231
2 231 232
2 232 233
2 233 234
2 234 235
2 235 236
2 236 237
2 237 238
2 238 239
2 239 240
2 240 241
2 241 242
2 242 243
2 243 244
2 244 245
2 245 246
2 246 247
2 247 248
2 248 249
2 249 250
2 250 251
2 251 252
2 252 253
2 253 254
2 254 255
2 255 256
2 256 257
2 257 258
2 258 259
2 259 260
2 260 261
2 261 262
2 262 263
2 263 264
2 264 265
2 265 266
2 266 267
2 267 268
2 268 269
2 269 270
2 270 271
2 271 272
2 272 273
2 273 274
2 274 275
2 275 276
2 276 277
2 277 278
2 278 279
2 279 280
2 280 281
2 281 282
2 282 283
2 283 284
2 284 285
2 285 286
2 286 287
2 287 288
2 288 289
2 289 290
2 290 291
2 291 292
2 292 293
2 293 294
2 294 295
2 295 296
2 296 297
2 297 298
2 298 299
2 299 300
2 300 301
2 301 302
2 302 303
2 303 304
2 304 305
2 305 306
2 306 307
2 307 308
2 308 309
2 309 310
2 310 311
2 311 312
2 312 313
2 313 314
2 314 315
2 315 316
2 316 317
2 317 318
2 318 319
2 319 320
2 320 321
2 321 322
2 322 323
2 323 324
2 324 325
2 325 326
2 326 327
2 327 328
2 328 329
2 329 330
2 330 331
2 331 332
2 332 333
2 333 334
2 334 335
2 335 336
2 336 337
2 337 338
2 338 339
2 339 340
2 340 341
2 341 342
2 342 343
2 343 344
2 344 345
2 345 346
2 346 347
2 347 348
2 348 349


POINT_DATA 350
SCALARS a FLOAT 1
LOOKUP_TABLE default
0.0005894628
0.0005894628
0.0005894628
0.0005894628
0.0005894628
0.0005894628
0.0005894628
0.0005894628
0.0005894628
0.0005894628
0.0005894628
0.0005894628
0.0005894628
0.0005894628
0.0005894628
0.0005894628
0.0005894628
0.0005894628
0.0005894628
0.0005894628
0.0005894628
0.0005894628
0.0005894628
0.0005894628
0.0005894628
0.0005894628
0.0005894628
0.0005894628
0.0005894628
0.0005894628
0.0005894628
0.0005894628
0.0005894628
0.0005894628
0.0005894628
0.0005894628
0.0005894628
0.0005894628
0.0005894628
0.0005894628
0.0005894628
0.0005894628
0.0005894628
0.0005894628
0.0005894628
0.0005894628
0.0005894628
0.0005894628
0.0005894628
0.0005894628
0.0005894628
0.0005894628
0.0005894628
0.0005894628
0.0005894628
0.0005894628
0.0005894628
0.0005894628
0.0005894628
0.0005894628
0.0005894628
0.0005894628
0.0005894628
0.0005894628
0.0005894628
0.0005894628
0.0005894628
0.0005894628
0.0005894628
0.0005894628
0.0005894628
0.0005894628
0.0005894628
0.0005894628
0.0005894628
0.0005894628
0.0005894628
0.0005894628
0.0005894628
0.0005894628
0.0005894628
0.0005894628
0.0005894628
0.0005894628
0.0005894628
0.0005894628
0.0005894628
0.0005894628
0.0005894628
0.0005894628
0.0005894628
0.0005894628
0.0005894628
0.0005894628
0.0005894628
0.0005894628
0.0005894628
0.0005894628
0.0005894628
0.0005894628
0.0005894628
0.0005894628
0.0005894628
0.0005894628
0.0005894628
0.0005894628
0.0005894628
0.0005894628
0.0005894628
0.0005894628
0.0005894628
0.0005894628
0.0005894628
0.0005894628
0.0005894628
0.0005894628
0.0005894628
0.0005894628
0.0005894628
0.0005894628
0.0005894628
0.0005894628
0.0005894628
0.0005894628
0.0005894628
0.0005894628
0.0005894628
0.0005894628
0.0005894628
0.0005894628
0.0005894628
0.0005894628
0.0005894628
0.0005894628
0.0005894628
0.0005894628
0.0005894628
0.0005894628
0.0005894628
0.0005894628
0.0005894628
0.0005894628
0.0005894628
0.0005894628
0.0005894628
0.0005894628
0.0005894628
0.0005894628
0.0005894628
0.0005894628
0.0005894628
0.0005894628
0.0005894628
0.0005894628
0.0005894628
0.0005894628
0.0005894628
0.0005894628
0.0005894628
0.0005894628
0.0005894628
0.0005894628
0.0005894628
0.0005894628
0.0005894628
0.0005894628
0.0005894628
0.0005894628
0.0005894628
0.0005894628
0.0005894628
0.0005894628
0.0005894628
0.0005894628
0.0005894628
0.0005894628
0.0005894628
0.0005894628
0.0005894628
0.0005894628
0.0005894628
0.0005894628
0.0005894628
0.0005894628
0.0005894628
0.0005894628
0.0005894628
0.0005894628
0.0005894628
0.0005894628
0.0005894628
0.0005894628
0.0005894628
0.0005894628
0.0005894628
0.0005894628
0.0005894628
0.0005894628
0.0005894628
0.0005894628
0.0005894628
0.0005894628
0.0005894628
0.0005894628
0.0005894628
0.0005894628
0.0005894628
0.0005894628
0.0005894628
0.0005894628
0.0005894628
0.0005894628
0.0005894628
0.0005894628
0.0005894628
0.0005894628
0.0005894628
0.0005894628
0.0005894628
0.0005894628
0.0005894628
0.0005894628
0.0005894628
0.0005894628
0.0005894628
0.0005894628
0.0005894628
0.0005894628
0.0005894628
0.0005894628
0.0005894628
0.0005894628
0.0005894628
0.0005894628
0.0005894628
0.0005894628
0.0005894628
0.0005894628
0.0005894628
0.0005894628
0.0005894628
0.0005894628
0.0005894628
0.0005894628
0.0005894628
0.0005894628
0.0005894628
0.0005894628
0.0005894628
0.0005894628
0.0005894628
0.0005894628
0.0005894628
0.0005894628
0.0005894628
0.0005894628
0.0005894628
0.0005894628
0.0005894628
0.0005894628
0.0005894628
0.0005894628
0.0005894628
0.0005894628
0.0005894628
0.0005894628
0.0005894628
0.0005894628
0.0005894628
0.0005894628
0.0005894628
0.0005894628
0.0005894628
0.0005894628
0.0005894628
0.0005894628
0.0005894628
0.0005894628
0.0005894628
0.0005894628
0.0005894628
0.0005894628
0.0005894628
0.0005894628
0.0005894628
0.0005894628
0.0005894628
0.0005894628
0.0005894628
0.0005894628
0.0005894628
0.0005894628
0.0005894628
0.0005894628
0.0005894628
0.0005894628
0.0005894628
0.0005894628
0.0005894628
0.0005894628
0.0005894628
0.0005894628
0.0005894628
0.0005894628
0.0005894628
0.0005894628
0.0005894628
0.0005894628
0.0005894628
0.0005894628
0.0005894628
0.0005894628
0.0005894628
0.0005894628
0.0005894628
0.0005894628
0.0005894628
0.0005894628
0.0005894628
0.0005894628
0.0005894628
0.0005894628
0.0005894628
0.0005894628
0.0005894628
0.0005894628
0.0005894628
0.0005894628
0.0005894628
0.0005894628
0.0005894628
0.0005894628
0.0005894628
0.0005894628
0.0005894628
0.0005894628
0.0005894628
0.0005894628
0.0005894628
0.0005894628
0.0005894628
0.0005894628
0.0005894628
0.0005894628
0.0005894628
0.0005894628
0.0005894628
0.0005894628
0.0005894628
0.0005894628


SCALARS b FLOAT 1
LOOKUP_TABLE default
0.04420971
0.04420971
0.04420971
0.04420971
0.04420971
0.04420971
0.04420971
0.04420971
0.04420971
0.04420971
0.04420971
0.04420971
0.04420971
0.04420971
0.04420971
0.04420971
0.04420971
0.04420971
0.04420971
0.04420971
0.04420971
0.04420971
0.04420971
0.04420971
0.04420971
0.04420971
0.04420971
0.04420971
0.04420971
0.04420971
0.04420971
0.04420971
0.04420971
0.04420971
0.04420971
0.04420971
0.04420971
0.04420971
0.04420971
0.04420971
0.04420971
0.04420971
0.04420971
0.04420971
0.04420971
0.04420971
0.04420971
0.04420971
0.04420971
0.04420971
0.04420971
0.04420971
0.04420971
0.04420971
0.04420971
0.04420971
0.04420971
0.04420971
0.04420971
0.04420971
0.04420971
0.04420971
0.04420971
0.04420971
0.04420971
0.04420971
0.04420971
0.04420971
0.04420971
0.04420971
0.04420971
0.04420971
0.04420971
0.04420971
0.04420971
0.04420971
0.04420971
0.04420971
0.04420971
0.04420971
0.04420971
0.04420971
0.04420971
0.04420971
0.04420971
0.04420971
0.04420971
0.04420971
0.04420971
0.04420971
0.04420971
0.04420971
0.04420971
0.04420971
0.04420971
0.04420971
0.04420971
0.04420971
0.04420971
0.04420971
0.04420971
0.04420971
0.04420971
0.04420971
0.04420971
0.04420971
0.04420971
0.04420971
0.04420971
0.04420971
0.04420971
0.04420971
0.04420971
0.04420971
0.04420971
0.04420971
0.04420971
0.04420971
0.04420971
0.04420971
0.04420971
0.04420971
0.04420971
0.04420971
0.04420971
0.04420971
0.04420971
0.04420971
0.04420971
0.04420971
0.04420971
0.04420971
0.04420971
0.04420971
0.04420971
0.04420971
0.04420971
0.04420971
0.04420971
0.04420971
0.04420971
0.04420971
0.04420971
0.04420971
0.04420971
0.04420971
0.04420971
0.04420971
0.04420971
0.04420971
0.04420971
0.04420971
0.04420971
0.04420971
0.04420971
0.04420971
0.04420971
0.04420971
0.04420971
0.04420971
0.04420971
0.04420971
0.04420971
0.04420971
0.04420971
0.04420971
0.04420971
0.04420971
0.04420971
0.04420971
0.04420971
0.04420971
0.04420971
0.04420971
0.04420971
0.04420971
0.04420971
0.04420971
0.04420971
0.04420971
0.04420971
0.04420971
0.04420971
0.04420971
0.04420971
0.04420971
0.04420971
0.04420971
0.04420971
0.04420971
0.04420971
0.04420971
0.04420971
0.04420971
0.04420971
0.04420971
0.04420971
0.04420971
0.04420971
0.04420971
0.04420971
0.04420971
0.04420971
0.04420971
0.04420971
0.04420971
0.04420971
0.04420971
0.04420971
0.04420971
0.04420971
0.04420971
0.04420971
0.04420971
0.04420971
0.04420971
0.04420971
0.04420971
0.04420971
0.04420971
0.04420971
0.04420971
0.04420971
0.04420971
0.04420971
0.04420971
0.04420971
0.04420971
0.04420971
0.04420971
0.04420971
0.04420971
0.04420971
0.04420971
0.04420971
0.04420971
0.04420971
0.04420971
0.04420971
0.04420971
0.04420971
0.04420971
0.04420971
0.04420971
0.04420971
0.04420971
0.04420971
0.04420971
0.04420971
0.04420971
0.04420971
0.04420971
0.04420971
0.04420971
0.04420971
0.04420971
0.04420971
0.04420971
0.04420971
0.04420971
0.04420971
0.04420971
0.04420971
0.04420971
0.04420971
0.04420971
0.04420971
0.04420971
0.04420971
0.04420971
0.04420971
0.04420971
0.04420971
0.04420971
0.04420971
0.04420971
0.04420971
0.04420971
0.04420971
0.04420971
0.04420971
0.04420971
0.04420971
0.04420971
0.04420971
0.04420971
0.04420971
0.04420971
0.04420971
0.04420971
0.04420971
0.04420971
0.04420971
0.04420971
0.04420971
0.04420971
0.04420971
0.04420971
0.04420971
0.04420971
0.04420971
0.04420971
0.04420971
0.04420971
0.04420971
0.04420971
0.04420971
0.04420971
0.04420971
0.04420971
0.04420971
0.04420971
0.04420971
0.04420971
0.04420971
0.04420971
0.04420971
0.04420971
0.04420971
0.04420971
0.04420971
0.04420971
0.04420971
0.04420971
0.04420971
0.04420971
0.04420971
0.04420971
0.04420971
0.04420971
0.04420971
0.04420971
0.04420971
0.04420971
0.04420971
0.04420971
0.04420971
0.04420971
0.04420971
0.04420971
0.04420971
0.04420971
0.04420971
0.04420971
0.04420971
0.04420971
0.04420971
0.04420971
0.04420971
0.04420971


VECTORS d1 FLOAT
0 -0.4089358 0.9125632
-0.03025063 -0.3822394 0.923568
-0.06066913 -0.3547165 0.9330035
-0.09118766 -0.3264144 0.940818
-0.1217363 -0.2973852 0.9469648
-0.1522432 -0.2676846 0.9514026
-0.1826353 -0.2373725 0.9540957
-0.2128385 -0.206512 0.9550144
-0.242778 -0.1751697 0.9541354
-0.272379 -0.1434153 0.9514419
-0.3015668 -0.1113206 0.9469241
-0.3302676 -0.07896013 0.9405789
-0.3584086 -0.04640988 0.9324105
-0.3859188 -0.01374729 0.9224303
-0.4127292 0.01894933 0.9106566
-0.4387732 0.0516012 0.897115
-0.4639872 0.08412961 0.8818379
-0.4883108 0.1164563 0.8648644
-0.5116872 0.1485042 0.8462403
-0.5340637 0.1801972 0.8260175
-0.5553917 0.2114617 0.8042537
-0.5756272 0.2422258 0.7810122
-0.5947307 0.2724206 0.7563613
-0.6126679 0.3019803 0.7303739
-0.6294091 0.3308424 0.7031269
-0.6449302 0.3589482 0.6747009
-0.6592117 0.3862428 0.6451793
-0.6722397 0.4126757 0.6146484
-0.6840049 0.4382008 0.5831958
-0.6945035 0.4627764 0.550911
-0.7037362 0.4863657 0.517884
-0.7117086 0.5089364 0.4842052
-0.7184308 0.5304611 0.4499648
-0.7239172 0.550917 0.4152521
-0.7281865 0.5702862 0.3801554
-0.7312608 0.5885553 0.3447612
-0.7331662 0.6057154 0.309154
-0.7339318 0.6217619 0.2734159
-0.7335897 0.6366945 0.2376263
-0.7321747 0.6505169 0.2018614
-0.7297238 0.6632365 0.1661943
-0.7262762 0.6748644 0.1306944
-0.7218727 0.6854148 0.09542754
-0.7165556 0.6949052 0.06045561
-0.7103683 0.7033558 0.02583661
-0.703355 0.7107894 -0.008375467
-0.6955606 0.7172311 -0.04213071
-0.6870302 0.722708 -0.07538325
-0.6778089 0.7272492 -0.1080913
-0.667942 0.7308849 -0.1402169
-0.657474 0.7336471 -0.1717263
-0.6464493 0.7355685 -0.2025892
-0.6349112 0.7366827 -0.2327795
-0.6229025 0.7370242 -0.2622742
-0.6104647 0.7366277 -0.2910541
-0.5976384 0.7355281 -0.3191031
-0.5844628 0.7337606 -0.3464083
-0.5709759 0.73136 -0.37296
-0.5572143 0.7283612 -0.3987508
-0.5432132 0.7247985 -0.4237766
-0.5290062 0.7207059 -0.4480351
-0.5146256 0.7161166 -0.4715268
-0.5001019 0.7110634 -0.494254
-0.4854642 0.705578 -0.5162211
-0.47074 0.6996916 -0.5374342
-0.4559553 0.6934343 -0.5579011
-0.4411346 0.6868352 -0.5776311
-0.4263008 0.6799227 -0.5966345
-0.4114755 0.6727238 -0.6149233
-0.3966786 0.6652648 -0.63251
-0.3819288 0.6575707 -0.6494083
-0.3672435 0.6496656 -0.6656327
-0.3526385 0.6415724 -0.6811982
-0.3381286 0.633313 -0.6961204
-0.3237272 0.6249084 -0.7104155
-0.3094467 0.6163782 -0.7240999
-0.2952983 0.6077412 -0.7371903
-0.281292 0.5990152 -0.7497037
-0.2674371 0.5902169 -0.761657
-0.2537415 0.5813621 -0.7730675
-0.2402127 0.5724656 -0.7839522
-0.226857 0.5635413 -0.7943281
-0.2136798 0.5546024 -0.8042121
-0.2006861 0.5456609 -0.8136211
-0.1878799 0.5367283 -0.8225715
-0.1752645 0.527815 -0.8310798
-0.1628429 0.518931 -0.839162
-0.1506172 0.5100852 -0.8468339
-0.1385889 0.5012859 -0.8541109
-0.1267594 0.492541 -0.8610084
-0.1151291 0.4838575 -0.8675409
-0.1036985 0.4752417 -0.8737231
-0.09246719 0.4666995 -0.8795689
-0.08143479 0.4582362 -0.885092
-0.0706004 0.4498567 -0.8903059
-0.05996283 0.4415651 -0.8952233
-0.04952062 0.4333652 -0.8998568
-0.03927206 0.4252604 -0.9042186
-0.02921521 0.4172535 -0.9083204
-0.0193479 0.4093471 -0.9121736
-0.009667799 0.4015432 -0.915789
-0.0001724024 0.3938437 -0.9191774
0.009140943 0.3862497 -0.9223489
0.01827502 0.3787625 -0.9253134
0.02723272 0.3713828 -0.9280804
0.03601703 0.364111 -0.9306589
0.04463102 0.3569472 -0.9330578
0.05307783 0.3498913 -0.9352854
0.06136065 0.342943 -0.93735
0.0694827 0.3361017 -0.9392592
0.07744724 0.3293665 -0.9410205
0.08525755 0.3227363 -0.9426412
0.09291692 0.3162099 -0.944128
0.1004286 0.3097858 -0.9454876
0.1077959 0.3034624 -0.9467263
0.115022 0.2972378 -0.94785
0.1221102 0.2911099 -0.9488646
0.1290636 0.2850767 -0.9497757
0.1358853 0.2791359 -0.9505884
0.1425785 0.2732849 -0.9513079
0.1491461 0.2675211 -0.951939
0.155591 0.2618418 -0.9524864
0.161916 0.2562443 -0.9529544
0.1681241 0.2507255 -0.9533473
0.1742177 0.2452823 -0.9536691
0.1801996 0.2399118 -0.9539237
0.1860721 0.2346106 -0.9541148
0.1918377 0.2293754 -0.9542459
0.1974984 0.224203 -0.9543204
0.2030566 0.2190899 -0.9543415
0.2085141 0.2140326 -0.9543123
0.2138728 0.2090278 -0.9542357
0.2191344 0.2040719 -0.9541147
0.2243005 0.1991614 -0.9539518
0.2293725 0.1942927 -0.9537497
0.2343517 0.1894625 -0.953511
0.2392392 0.1846671 -0.953238
0.244036 0.179903 -0.952933
0.2487428 0.1751669 -0.9525983
0.2533602 0.1704552 -0.9522361
0.2578888 0.1657645 -0.9518484
0.2623288 0.1610916 -0.9514374
0.2666803 0.156433 -0.9510049
0.2709431 0.1517854 -0.950553
0.2751171 0.1471458 -0.9500835
0.2792017 0.1425108 -0.9495984
0.2831961 0.1378774 -0.9490995
0.2870996 0.1332425 -0.9485886
0.2909109 0.1286033 -0.9480675
0.2946287 0.1239567 -0.9475382
0.2982513 0.1193 -0.9470025
0.3017769 0.1146305 -0.9464621
0.3052034 0.1099455 -0.9459191
0.3085282 0.1052425 -0.9453753
0.3117487 0.1005191 -0.9448326
0.3148618 0.09577294 -0.9442932
0.3178642 0.09100198 -0.943759
0.3207521 0.08620418 -0.9432322
0.3235215 0.08137774 -0.942715
0.326168 0.07652104 -0.9422096
0.3286866 0.07163271 -0.9417186
0.3310723 0.06671165 -0.9412442
0.3333195 0.06175704 -0.9407891
0.3354223 0.05676844 -0.9403559
0.3373743 0.05174577 -0.9399473
0.3391692 0.04668941 -0.939566
0.3408001 0.04160023 -0.9392149
0.3422604 0.03647966 -0.9388967
0.3435431 0.03132968 -0.9386142
0.3446418 0.02615291 -0.9383699
0.3455504 0.02095258 -0.9381662
0.3462634 0.01573253 -0.9380054
0.3467761 0.01049714 -0.9378892
0.3470852 0.005251238 -0.9378189
0.3471885 -1.629413e-09 -0.9377954
0.3470852 -0.005251241 -0.9378189
0.3467761 -0.01049714 -0.9378892
0.3462634 -0.01573254 -0.9380054
0.3455504 -0.02095259 -0.9381662
0.3446418 -0.02615292 -0.9383699
0.3435431 -0.03132968 -0.9386142
0.3422604 -0.03647966 -0.9388967
0.3408001 -0.04160024 -0.9392149
0.3391692 -0.04668941 -0.939566
0.3373743 -0.05174577 -0.9399473
0.3354223 -0.05676844 -0.9403559
0.3333195 -0.06175705 -0.9407891
0.3310723 -0.06671165 -0.9412442
0.3286866 -0.07163272 -0.9417186
0.326168 -0.07652104 -0.9422096
0.3235215 -0.08137774 -0.942715
0.3207521 -0.08620419 -0.9432322
0.3178642 -0.09100199 -0.943759
0.3148618 -0.09577295 -0.9442932
0.3117487 -0.1005191 -0.9448326
0.3085282 -0.1052425 -0.9453752
0.3052034 -0.1099455 -0.9459191
0.3017769 -0.1146305 -0.9464621
0.2982513 -0.1193 -0.9470025
0.2946287 -0.1239567 -0.9475382
0.2909109 -0.1286033 -0.9480675
0.2870996 -0.1332425 -0.9485886
0.2831961 -0.1378774 -0.9490995
0.2792017 -0.1425108 -0.9495984
0.2751171 -0.1471458 -0.9500835
0.2709431 -0.1517854 -0.950553
0.2666803 -0.156433 -0.9510049
0.2623288 -0.1610916 -0.9514374
0.2578888 -0.1657645 -0.9518484
0.2533602 -0.1704552 -0.9522361
0.2487428 -0.1751669 -0.9525983
0.244036 -0.179903 -0.952933
0.2392392 -0.1846671 -0.953238
0.2343517 -0.1894625 -0.953511
0.2293725 -0.1942927 -0.9537497
0.2243005 -0.1991614 -0.9539518
0.2191344 -0.2040719 -0.9541147
0.2138728 -0.2090278 -0.9542357
0.2085141 -0.2140326 -0.9543123
0.2030566 -0.2190899 -0.9543415
0.1974984 -0.224203 -0.9543204
0.1918377 -0.2293754 -0.9542459
0.1860721 -0.2346106 -0.9541148
0.1801996 -0.2399118 -0.9539237
0.1742177 -0.2452823 -0.9536691
0.1681241 -0.2507255 -0.9533473
0.161916 -0.2562443 -0.9529544