# vtk DataFile Version 2.0
Written badly by Kevin Korner
ASCII
DATASET POLYDATA
POINTS 350 FLOAT
0 0 0
0.00286533 0 0
0.005728986 -5.118308e-05 8.345835e-05
0.008587555 -0.0001513944 0.0002527381
0.01143753 -0.0002982708 0.0005100175
0.01427532 -0.0004892445 0.000857272
0.01709728 -0.0007215478 0.001296257
0.0198997 -0.0009922206 0.001828489
0.02267886 -0.001298118 0.002455235
0.02543101 -0.001635923 0.003177492
0.02815242 -0.002002155 0.003995981
0.03083937 -0.002393186 0.004911131
0.0334882 -0.002805256 0.005923073
0.0360953 -0.003234487 0.007031632
0.03865715 -0.003676905 0.008236325
0.04117035 -0.004128454 0.009536356
0.04363158 -0.00458502 0.01093062
0.04603772 -0.005042449 0.01241769
0.04838575 -0.005496571 0.01399587
0.05067286 -0.005943218 0.01566312
0.05289643 -0.006378247 0.01741715
0.05505401 -0.00679756 0.01925539
0.0571434 -0.007197129 0.021175
0.05916261 -0.007573009 0.02317291
0.06110987 -0.007921365 0.02524581
0.06298366 -0.008238483 0.02739021
0.06478271 -0.008520793 0.02960241
0.06650599 -0.00876488 0.03187856
0.06815269 -0.0089675 0.03421468
0.06972228 -0.009125595 0.03660664
0.07121445 -0.009236296 0.03905027
0.07262913 -0.00929694 0.04154127
0.07396648 -0.009305074 0.04407535
0.07522689 -0.009258458 0.04664815
0.07641093 -0.009155072 0.04925535
0.0775194 -0.008993116 0.05189261
0.07855329 -0.008771009 0.05455566
0.07951375 -0.008487391 0.05724029
0.08040211 -0.008141116 0.05994233
0.08121982 -0.007731251 0.06265774
0.08196852 -0.007257067 0.06538257
0.08264992 -0.006718035 0.06811301
0.08326586 -0.006113819 0.07084534
0.08381829 -0.005444264 0.07357602
0.08430922 -0.00470939 0.07630165
0.08474073 -0.003909382 0.07901899
0.08511496 -0.003044577 0.08172494
0.0854341 -0.002115456 0.08441659
0.08570035 -0.001122636 0.0870912
0.08591594 -6.685219e-05 0.08974619
0.08608312 0.001051046 0.09237915
0.08620413 0.002230109 0.09498784
0.08628119 0.003469296 0.0975702
0.08631651 0.004767487 0.1001243
0.08631229 0.00612349 0.1026485
0.08627068 0.007536052 0.1051411
0.08619378 0.009003867 0.1076007
0.08608367 0.01052559 0.1100261
0.08594238 0.01209982 0.112416
0.08577188 0.01372517 0.1147696
0.08557407 0.01540018 0.1170859
0.08535082 0.01712342 0.1193642
0.08510391 0.01889343 0.1216039
0.08483509 0.02070875 0.1238045
0.08454602 0.02256791 0.1259655
0.0842383 0.02446948 0.1280867
0.08391348 0.02641201 0.1301678
0.08357301 0.02839408 0.1322088
0.08321833 0.03041429 0.1342096
0.08285075 0.03247125 0.1361702
0.08247158 0.0345636 0.1380907
0.08208201 0.03669001 0.1399713
0.08168322 0.03884918 0.1418123
0.08127628 0.04103983 0.1436138
0.08086224 0.04326072 0.1453763
0.08044208 0.04551064 0.1471001
0.08001672 0.04778841 0.1487856
0.07958703 0.05009289 0.1504333
0.07915383 0.05242296 0.1520436
0.07871788 0.05477756 0.1536171
0.0782799 0.05715564 0.1551543
0.07784057 0.05955619 0.1566558
0.0774005 0.06197825 0.1581221
0.0769603 0.06442087 0.1595539
0.07652051 0.06688316 0.1609517
0.07608162 0.06936424 0.1623161
0.07564411 0.07186327 0.1636479
0.07520841 0.07437945 0.1649475
0.07477493 0.07691201 0.1662158
0.07434403 0.07946019 0.1674532
0.07391605 0.08202329 0.1686604
0.0734913 0.08460062 0.1698382
0.07307006 0.08719153 0.170987
0.07265259 0.08979538 0.1721077
0.07223913 0.09241158 0.1732007
0.07182989 0.09503954 0.1742667
0.07142505 0.09767872 0.1753064
0.07102479 0.1003286 0.1763204
0.07062925 0.1029886 0.1773092
0.07023858 0.1056584 0.1782735
0.06985288 0.1083374 0.1792139
0.06947227 0.1110252 0.1801309
0.06909682 0.1137214 0.1810252
0.06872661 0.1164256 0.1818973
0.06836171 0.1191373 0.1827477
0.06800216 0.1218564 0.183577
0.06764801 0.1245823 0.1843857
0.06729929 0.1273148 0.1851743
0.06695602 0.1300535 0.1859434
0.06661821 0.1327983 0.1866934
0.06628587 0.1355487 0.1874249
0.06595899 0.1383044 0.1881382
0.06563758 0.1410654 0.1888339
0.06532163 0.1438312 0.1895124
0.0650111 0.1466018 0.1901741
0.064706 0.1493768 0.1908195
0.06440628 0.152156 0.1914489
0.06411193 0.1549393 0.1920627
0.06382291 0.1577264 0.1926614
0.0635392 0.1605172 0.1932453
0.06326076 0.1633116 0.1938147
0.06298755 0.1661093 0.19437
0.06271954 0.1689102 0.1949115
0.06245669 0.1717141 0.1954396
0.06219897 0.174521 0.1959544
0.06194635 0.1773307 0.1964564
0.06169878 0.1801431 0.1969458
0.06145623 0.182958 0.1974228
0.06121868 0.1857753 0.1978877
0.06098608 0.1885951 0.1983407
0.06075841 0.191417 0.1987822
0.06053564 0.1942411 0.1992121
0.06031774 0.1970673 0.1996309
0.06010469 0.1998955 0.2000386
0.05989647 0.2027255 0.2004355
0.05969305 0.2055574 0.2008217
0.05949443 0.2083911 0.2011973
0.05930057 0.2112264 0.2015625
0.05911149 0.2140634 0.2019175
0.05892715 0.2169019 0.2022623
0.05874757 0.2197419 0.2025971
0.05857273 0.2225834 0.202922
0.05840263 0.2254263 0.2032371
0.05823728 0.2282705 0.2035424
0.05807668 0.231116 0.203838
0.05792083 0.2339627 0.2041241
0.05776976 0.2368107 0.2044006
0.05762347 0.2396598 0.2046676
0.05748197 0.24251 0.2049252
0.0573453 0.2453613 0.2051733
0.05721346 0.2482136 0.2054121
0.05708648 0.2510669 0.2056415
0.05696439 0.2539212 0.2058616
0.05684722 0.2567763 0.2060723
0.05673499 0.2596324 0.2062737
0.05662775 0.2624893 0.2064658
0.05652551 0.2653469 0.2066485
0.05642833 0.2682054 0.2068219
0.05633624 0.2710645 0.2069859
0.05624927 0.2739243 0.2071405
0.05616747 0.2767848 0.2072856
0.05609087 0.2796459 0.2074213
0.05601953 0.2825076 0.2075476
0.05595347 0.2853698 0.2076643
0.05589274 0.2882324 0.2077714
0.05583738 0.2910956 0.207869
0.05578743 0.2939591 0.2079569
0.05574292 0.296823 0.2080352
0.0557039 0.2996873 0.2081038
0.05567038 0.3025518 0.2081627
0.0556424 0.3054166 0.2082118
0.05561999 0.3082815 0.2082511
0.05560316 0.3111467 0.2082806
0.05559194 0.3140119 0.2083003
0.05558632 0.3168772 0.2083101
0.05558632 0.3197426 0.2083101
0.05559194 0.3226079 0.2083003
0.05560316 0.3254731 0.2082806
0.05561999 0.3283382 0.2082511
0.0556424 0.3312032 0.2082118
0.05567038 0.334068 0.2081627
0.0557039 0.3369325 0.2081038
0.05574292 0.3397967 0.2080352
0.05578743 0.3426607 0.2079569
0.05583738 0.3455242 0.207869
0.05589274 0.3483873 0.2077714
0.05595347 0.35125 0.2076643
0.05601953 0.3541122 0.2075476
0.05609087 0.3569739 0.2074213
0.05616747 0.359835 0.2072856
0.05624927 0.3626954 0.2071405
0.05633624 0.3655553 0.2069859
0.05642833 0.3684144 0.2068219
0.05652551 0.3712728 0.2066485
0.05662775 0.3741305 0.2064658
0.05673499 0.3769874 0.2062737
0.05684722 0.3798434 0.2060723
0.05696439 0.3826986 0.2058616
0.05708648 0.3855528 0.2056415
0.05721346 0.3884062 0.2054121
0.0573453 0.3912585 0.2051733
0.05748197 0.3941098 0.2049252
0.05762347 0.39696 0.2046676
0.05776976 0.3998091 0.2044006
0.05792083 0.402657 0.2041241
0.05807668 0.4055038 0.203838
0.05823728 0.4083493 0.2035424
0.05840263 0.4111935 0.2032371
0.05857273 0.4140364 0.202922
0.05874757 0.4168779 0.2025971
0.05892715 0.4197179 0.2022623
0.05911149 0.4225564 0.2019175
0.05930057 0.4253934 0.2015625
0.05949443 0.4282287 0.2011973
0.05969305 0.4310624 0.2008217
0.05989647 0.4338943 0.2004355
0.06010469 0.4367243 0.2000386
0.06031774 0.4395525 0.1996309
0.06053564 0.4423787 0.1992121
0.06075841 0.4452028 0.1987822
0.06098608 0.4480247 0.1983407
0.06121868 0.4508444 0.1978877
0.06145623 0.4536618 0.1974228
0.06169878 0.4564767 0.1969458
0.06194635 0.4592891 0.1964564
0.06219897 0.4620987 0.1959544
0.06245669 0.4649056 0.1954396
0.06271954 0.4677096 0.1949115
0.06298755 0.4705105 0.19437
0.06326076 0.4733082 0.1938147
0.0635392 0.4761025 0.1932453
0.06382291 0.4788934 0.1926614
0.06411193 0.4816805 0.1920627
0.06440628 0.4844638 0.1914489
0.064706 0.487243 0.1908195
0.0650111 0.490018 0.1901741
0.06532163 0.4927885 0.1895124
0.06563758 0.4955544 0.1888339
0.06595899 0.4983153 0.1881382
0.06628587 0.5010711 0.1874249
0.06661821 0.5038215 0.1866934
0.06695602 0.5065662 0.1859434
0.06729929 0.509305 0.1851743
0.06764801 0.5120375 0.1843857
0.06800216 0.5147634 0.183577
0.06836171 0.5174824 0.1827477
0.06872661 0.5201942 0.1818973
0.06909682 0.5228984 0.1810252
0.06947227 0.5255946 0.1801309
0.06985288 0.5282824 0.1792139
0.07023858 0.5309614 0.1782735
0.07062925 0.5336311 0.1773092
0.07102479 0.5362912 0.1763204
0.07142505 0.5389411 0.1753064
0.07182989 0.5415802 0.1742667
0.07223913 0.5442082 0.1732007
0.07265259 0.5468244 0.1721077
0.07307006 0.5494282 0.170987
0.0734913 0.5520191 0.1698382
0.07391605 0.5545965 0.1686604
0.07434403 0.5571596 0.1674532
0.07477493 0.5597078 0.1662158
0.07520841 0.5622403 0.1649475
0.07564411 0.5647565 0.1636479
0.07608162 0.5672555 0.1623161
0.07652051 0.5697366 0.1609517
0.0769603 0.5721989 0.1595539
0.0774005 0.5746415 0.1581221
0.07784057 0.5770636 0.1566558
0.0782799 0.5794641 0.1551543
0.07871788 0.5818422 0.1536171
0.07915383 0.5841968 0.1520436
0.07958703 0.5865269 0.1504333
0.08001672 0.5888314 0.1487856
0.08044208 0.5911091 0.1471001
0.08086224 0.593359 0.1453763
0.08127628 0.5955799 0.1436138
0.08168322 0.5977706 0.1418123
0.08208201 0.5999298 0.1399713
0.08247158 0.6020562 0.1380907
0.08285075 0.6041485 0.1361702
0.08321833 0.6062055 0.1342096
0.08357301 0.6082257 0.1322088
0.08391348 0.6102078 0.1301678
0.0842383 0.6121503 0.1280867
0.08454602 0.6140519 0.1259655
0.08483509 0.615911 0.1238045
0.08510391 0.6177263 0.1216039
0.08535082 0.6194963 0.1193642
0.08557407 0.6212196 0.1170859
0.08577188 0.6228946 0.1147696
0.08594238 0.6245199 0.112416
0.08608367 0.6260942 0.1100261
0.08619378 0.6276159 0.1076007
0.08627068 0.6290837 0.1051411
0.08631229 0.6304963 0.1026485
0.08631651 0.6318523 0.1001243
0.08628119 0.6331505 0.0975702
0.08620413 0.6343897 0.09498784
0.08608312 0.6355687 0.09237915
0.08591594 0.6366866 0.08974619
0.08570035 0.6377424 0.0870912
0.0854341 0.6387352 0.08441659
0.08511496 0.6396643 0.08172494
0.08474073 0.6405292 0.07901899
0.08430922 0.6413292 0.07630165
0.08381829 0.642064 0.07357602
0.08326586 0.6427336 0.07084534
0.08264992 0.6433378 0.06811301
0.08196852 0.6438768 0.06538257
0.08121982 0.644351 0.06265774
0.0804021 0.6447609 0.05994233
0.07951375 0.6451072 0.05724029
0.07855329 0.6453908 0.05455567
0.0775194 0.6456129 0.05189261
0.07641093 0.6457748 0.04925535
0.07522689 0.6458782 0.04664815
0.07396648 0.6459248 0.04407535
0.07262913 0.6459167 0.04154127
0.07121445 0.6458561 0.03905027
0.06972228 0.6457454 0.03660664
0.06815269 0.6455873 0.03421468
0.06650599 0.6453847 0.03187856
0.06478271 0.6451406 0.02960241
0.06298366 0.6448583 0.02739021
0.06110987 0.6445411 0.02524581
0.05916261 0.6441928 0.02317291
0.0571434 0.6438169 0.021175
0.05505401 0.6434173 0.01925539
0.05289643 0.642998 0.01741715
0.05067286 0.642563 0.01566312
0.04838575 0.6421163 0.01399587
0.04603772 0.6416622 0.01241769
0.04363158 0.6412048 0.01093062
0.04117035 0.6407482 0.009536356
0.03865715 0.6402967 0.008236325
0.0360953 0.6398543 0.007031632
0.0334882 0.639425 0.005923073
0.03083937 0.639013 0.004911131
0.02815242 0.6386219 0.003995981
0.02543101 0.6382557 0.003177492
0.02267886 0.6379179 0.002455235
0.0198997 0.637612 0.001828489
0.01709728 0.6373413 0.001296257
0.01427532 0.637109 0.000857272
0.01143753 0.636918 0.0005100175
0.008587555 0.6367712 0.0002527381
0.005728986 0.636671 8.345835e-05
0.00286533 0.6366198 0
0 0.6366198 0

LINES 349 1047
2 0 1
2 1 2
2 2 3
2 3 4
2 4 5
2 5 6
2 6 7
2 7 8
2 8 9
2 9 10
2 10 11
2 11 12
2 12 13
2 13 14
2 14 15
2 15 16
2 16 17
2 17 18
2 18 19
2 19 20
2 20 21
2 21 22
2 22 23
2 23 24
2 24 25
2 25 26
2 26 27
2 27 28
2 28 29
2 29 30
2 30 31
2 31 32
2 32 33
2 33 34
2 34 35
2 35 36
2 36 37
2 37 38
2 38 39
2 39 40
2 40 41
2 41 42
2 42 43
2 43 44
2 44 45
2 45 46
2 46 47
2 47 48
2 48 49
2 49 50
2 50 51
2 51 52
2 52 53
2 53 54
2 54 55
2 55 56
2 56 57
2 57 58
2 58 59
2 59 60
2 60 61
2 61 62
2 62 63
2 63 64
2 64 65
2 65 66
2 66 67
2 67 68
2 68 69
2 69 70
2 70 71
2 71 72
2 72 73
2 73 74
2 74 75
2 75 76
2 76 77
2 77 78
2 78 79
2 79 80
2 80 81
2 81 82
2 82 83
2 83 84
2 84 85
2 85 86
2 86 87
2 87 88
2 88 89
2 89 90
2 90 91
2 91 92
2 92 93
2 93 94
2 94 95
2 95 96
2 96 97
2 97 98
2 98 99
2 99 100
2 100 101
2 101 102
2 102 103
2 103 104
2 104 105
2 105 106
2 106 107
2 107 108
2 108 109
2 109 110
2 110 111
2 111 112
2 112 113
2 113 114
2 114 115
2 115 116
2 116 117
2 117 118
2 118 119
2 119 120
2 120 121
2 121 122
2 122 123
2 123 124
2 124 125
2 125 126
2 126 127
2 127 128
2 128 129
2 129 130
2 130 131
2 131 132
2 132 133
2 133 134
2 134 135
2 135 136
2 136 137
2 137 138
2 138 139
2 139 140
2 140 141
2 141 142
2 142 143
2 143 144
2 144 145
2 145 146
2 146 147
2 147 148
2 148 149
2 149 150
2 150 151
2 151 152
2 152 153
2 153 154
2 154 155
2 155 156
2 156 157
2 157 158
2 158 159
2 159 160
2 160 161
2 161 162
2 162 163
2 163 164
2 164 165
2 165 166
2 166 167
2 167 168
2 168 169
2 169 170
2 170 171
2 171 172
2 172 173
2 173 174
2 174 175
2 175 176
2 176 177
2 177 178
2 178 179
2 179 180
2 180 181
2 181 182
2 182 183
2 183 184
2 184 185
2 185 186
2 186 187
2 187 188
2 188 189
2 189 190
2 190 191
2 191 192
2 192 193
2 193 194
2 194 195
2 195 196
2 196 197
2 197 198
2 198 199
2 199 200
2 200 201
2 201 202
2 202 203
2 203 204
2 204 205
2 205 206
2 206 207
2 207 208
2 208 209
2 209 210
2 210 211
2 211 212
2 212 213
2 213 214
2 214 215
2 215 216
2 216 217
2 217 218
2 218 219
2 219 220
2 220 221
2 221 222
2 222 223
2 223 224
2 224 225
2 225 226
2 226 227
2 227 228
2 228 229
2 229 230
2 230 231
2 231 232
2 232 233
2 233 234
2 234 235
2 235 236
2 236 237
2 237 238
2 238 239
2 239 240
2 240 241
2 241 242
2 242 243
2 243 244
2 244 245
2 245 246
2 246 247
2 247 248
2 248 249
2 249 250
2 250 251
2 251 252
2 252 253
2 253 254
2 254 255
2 255 256
2 256 257
2 257 258
2 258 259
2 259 260
2 260 261
2 261 262
2 262 263
2 263 264
2 264 265
2 265 266
2 266 267
2 267 268
2 268 269
2 269 270
2 270 271
2 271 272
2 272 273
2 273 274
2 274 275
2 275 276
2 276 277
2 277 278
2 278 279
2 279 280
2 280 281
2 281 282
2 282 283
2 283 284
2 284 285
2 285 286
2 286 287
2 287 288
2 288 289
2 289 290
2 290 291
2 291 292
2 292 293
2 293 294
2 294 295
2 295 296
2 296 297
2 297 298
2 298 299
2 299 300
2 300 301
2 301 302
2 302 303
2 303 304
2 304 305
2 305 306
2 306 307
2 307 308
2 308 309
2 309 310
2 310 311
2 311 312
2 312 313
2 313 314
2 314 315
2 315 316
2 316 317
2 317 318
2 318 319
2 319 320
2 320 321
2 321 322
2 322 323
2 323 324
2 324 325
2 325 326
2 326 327
2 327 328
2 328 329
2 329 330
2 330 331
2 331 332
2 332 333
2 333 334
2 334 335
2 335 336
2 336 337
2 337 338
2 338 339
2 339 340
2 340 341
2 341 342
2 342 343
2 343 344
2 344 345
2 345 346
2 346 347
2 347 348
2 348 349


POINT_DATA 350
SCALARS a FLOAT 1
LOOKUP_TABLE default
0.0005894628
0.0005894628
0.0005894628
0.0005894628
0.0005894628
0.0005894628
0.0005894628
0.0005894628
0.0005894628
0.0005894628
0.0005894628
0.0005894628
0.0005894628
0.0005894628
0.0005894628
0.0005894628
0.0005894628
0.0005894628
0.0005894628
0.0005894628
0.0005894628
0.0005894628
0.0005894628
0.0005894628
0.0005894628
0.0005894628
0.0005894628
0.0005894628
0.0005894628
0.0005894628
0.0005894628
0.0005894628
0.0005894628
0.0005894628
0.0005894628
0.0005894628
0.0005894628
0.0005894628
0.0005894628
0.0005894628
0.0005894628
0.0005894628
0.0005894628
0.0005894628
0.0005894628
0.0005894628
0.0005894628
0.0005894628
0.0005894628
0.0005894628
0.0005894628
0.0005894628
0.0005894628
0.0005894628
0.0005894628
0.0005894628
0.0005894628
0.0005894628
0.0005894628
0.0005894628
0.0005894628
0.0005894628
0.0005894628
0.0005894628
0.0005894628
0.0005894628
0.0005894628
0.0005894628
0.0005894628
0.0005894628
0.0005894628
0.0005894628
0.0005894628
0.0005894628
0.0005894628
0.0005894628
0.0005894628
0.0005894628
0.0005894628
0.0005894628
0.0005894628
0.0005894628
0.0005894628
0.0005894628
0.0005894628
0.0005894628
0.0005894628
0.0005894628
0.0005894628
0.0005894628
0.0005894628
0.0005894628
0.0005894628
0.0005894628
0.0005894628
0.0005894628
0.0005894628
0.0005894628
0.0005894628
0.0005894628
0.0005894628
0.0005894628
0.0005894628
0.0005894628
0.0005894628
0.0005894628
0.0005894628
0.0005894628
0.0005894628
0.0005894628
0.0005894628
0.0005894628
0.0005894628
0.0005894628
0.0005894628
0.0005894628
0.0005894628
0.0005894628
0.0005894628
0.0005894628
0.0005894628
0.0005894628
0.0005894628
0.0005894628
0.0005894628
0.0005894628
0.0005894628
0.0005894628
0.0005894628
0.0005894628
0.0005894628
0.0005894628
0.0005894628
0.0005894628
0.0005894628
0.0005894628
0.0005894628
0.0005894628
0.0005894628
0.0005894628
0.0005894628
0.0005894628
0.0005894628
0.0005894628
0.0005894628
0.0005894628
0.0005894628
0.0005894628
0.0005894628
0.0005894628
0.0005894628
0.0005894628
0.0005894628
0.0005894628
0.0005894628
0.0005894628
0.0005894628
0.0005894628
0.0005894628
0.0005894628
0.0005894628
0.0005894628
0.0005894628
0.0005894628
0.0005894628
0.0005894628
0.0005894628
0.0005894628
0.0005894628
0.0005894628
0.0005894628
0.0005894628
0.0005894628
0.0005894628
0.0005894628
0.0005894628
0.0005894628
0.0005894628
0.0005894628
0.0005894628
0.0005894628
0.0005894628
0.0005894628
0.0005894628
0.0005894628
0.0005894628
0.0005894628
0.0005894628
0.0005894628
0.0005894628
0.0005894628
0.0005894628
0.0005894628
0.0005894628
0.0005894628
0.0005894628
0.0005894628
0.0005894628
0.0005894628
0.0005894628
0.0005894628
0.0005894628
0.0005894628
0.0005894628
0.0005894628
0.0005894628
0.0005894628
0.0005894628
0.0005894628
0.0005894628
0.0005894628
0.0005894628
0.0005894628
0.0005894628
0.0005894628
0.0005894628
0.0005894628
0.0005894628
0.0005894628
0.0005894628
0.0005894628
0.0005894628
0.0005894628
0.0005894628
0.0005894628
0.0005894628
0.0005894628
0.0005894628
0.0005894628
0.0005894628
0.0005894628
0.0005894628
0.0005894628
0.0005894628
0.0005894628
0.0005894628
0.0005894628
0.0005894628
0.0005894628
0.0005894628
0.0005894628
0.0005894628
0.0005894628
0.0005894628
0.0005894628
0.0005894628
0.0005894628
0.0005894628
0.0005894628
0.0005894628
0.0005894628
0.0005894628
0.0005894628
0.0005894628
0.0005894628
0.0005894628
0.0005894628
0.0005894628
0.0005894628
0.0005894628
0.0005894628
0.0005894628
0.0005894628
0.0005894628
0.0005894628
0.0005894628
0.0005894628
0.0005894628
0.0005894628
0.0005894628
0.0005894628
0.0005894628
0.0005894628
0.0005894628
0.0005894628
0.0005894628
0.0005894628
0.0005894628
0.0005894628
0.0005894628
0.0005894628
0.0005894628
0.0005894628
0.0005894628
0.0005894628
0.0005894628
0.0005894628
0.0005894628
0.0005894628
0.0005894628
0.0005894628
0.0005894628
0.0005894628
0.0005894628
0.0005894628
0.0005894628
0.0005894628
0.0005894628
0.0005894628
0.0005894628
0.0005894628
0.0005894628
0.0005894628
0.0005894628
0.0005894628
0.0005894628
0.0005894628
0.0005894628
0.0005894628
0.0005894628
0.0005894628
0.0005894628
0.0005894628
0.0005894628
0.0005894628
0.0005894628
0.0005894628
0.0005894628
0.0005894628
0.0005894628
0.0005894628
0.0005894628
0.0005894628
0.0005894628
0.0005894628
0.0005894628
0.0005894628
0.0005894628
0.0005894628
0.0005894628
0.0005894628
0.0005894628
0.0005894628
0.0005894628
0.0005894628
0.0005894628
0.0005894628
0.0005894628
0.0005894628
0.0005894628
0.0005894628
0.0005894628
0.0005894628
0.0005894628
0.0005894628
0.0005894628
0.0005894628
0.0005894628
0.0005894628
0.0005894628


SCALARS b FLOAT 1
LOOKUP_TABLE default
0.04420971
0.04420971
0.04420971
0.04420971
0.04420971
0.04420971
0.04420971
0.04420971
0.04420971
0.04420971
0.04420971
0.04420971
0.04420971
0.04420971
0.04420971
0.04420971
0.04420971
0.04420971
0.04420971
0.04420971
0.04420971
0.04420971
0.04420971
0.04420971
0.04420971
0.04420971
0.04420971
0.04420971
0.04420971
0.04420971
0.04420971
0.04420971
0.04420971
0.04420971
0.04420971
0.04420971
0.04420971
0.04420971
0.04420971
0.04420971
0.04420971
0.04420971
0.04420971
0.04420971
0.04420971
0.04420971
0.04420971
0.04420971
0.04420971
0.04420971
0.04420971
0.04420971
0.04420971
0.04420971
0.04420971
0.04420971
0.04420971
0.04420971
0.04420971
0.04420971
0.04420971
0.04420971
0.04420971
0.04420971
0.04420971
0.04420971
0.04420971
0.04420971
0.04420971
0.04420971
0.04420971
0.04420971
0.04420971
0.04420971
0.04420971
0.04420971
0.04420971
0.04420971
0.04420971
0.04420971
0.04420971
0.04420971
0.04420971
0.04420971
0.04420971
0.04420971
0.04420971
0.04420971
0.04420971
0.04420971
0.04420971
0.04420971
0.04420971
0.04420971
0.04420971
0.04420971
0.04420971
0.04420971
0.04420971
0.04420971
0.04420971
0.04420971
0.04420971
0.04420971
0.04420971
0.04420971
0.04420971
0.04420971
0.04420971
0.04420971
0.04420971
0.04420971
0.04420971
0.04420971
0.04420971
0.04420971
0.04420971
0.04420971
0.04420971
0.04420971
0.04420971
0.04420971
0.04420971
0.04420971
0.04420971
0.04420971
0.04420971
0.04420971
0.04420971
0.04420971
0.04420971
0.04420971
0.04420971
0.04420971
0.04420971
0.04420971
0.04420971
0.04420971
0.04420971
0.04420971
0.04420971
0.04420971
0.04420971
0.04420971
0.04420971
0.04420971
0.04420971
0.04420971
0.04420971
0.04420971
0.04420971
0.04420971
0.04420971
0.04420971
0.04420971
0.04420971
0.04420971
0.04420971
0.04420971
0.04420971
0.04420971
0.04420971
0.04420971
0.04420971
0.04420971
0.04420971
0.04420971
0.04420971
0.04420971
0.04420971
0.04420971
0.04420971
0.04420971
0.04420971
0.04420971
0.04420971
0.04420971
0.04420971
0.04420971
0.04420971
0.04420971
0.04420971
0.04420971
0.04420971
0.04420971
0.04420971
0.04420971
0.04420971
0.04420971
0.04420971
0.04420971
0.04420971
0.04420971
0.04420971
0.04420971
0.04420971
0.04420971
0.04420971
0.04420971
0.04420971
0.04420971
0.04420971
0.04420971
0.04420971
0.04420971
0.04420971
0.04420971
0.04420971
0.04420971
0.04420971
0.04420971
0.04420971
0.04420971
0.04420971
0.04420971
0.04420971
0.04420971
0.04420971
0.04420971
0.04420971
0.04420971
0.04420971
0.04420971
0.04420971
0.04420971
0.04420971
0.04420971
0.04420971
0.04420971
0.04420971
0.04420971
0.04420971
0.04420971
0.04420971
0.04420971
0.04420971
0.04420971
0.04420971
0.04420971
0.04420971
0.04420971
0.04420971
0.04420971
0.04420971
0.04420971
0.04420971
0.04420971
0.04420971
0.04420971
0.04420971
0.04420971
0.04420971
0.04420971
0.04420971
0.04420971
0.04420971
0.04420971
0.04420971
0.04420971
0.04420971
0.04420971
0.04420971
0.04420971
0.04420971
0.04420971
0.04420971
0.04420971
0.04420971
0.04420971
0.04420971
0.04420971
0.04420971
0.04420971
0.04420971
0.04420971
0.04420971
0.04420971
0.04420971
0.04420971
0.04420971
0.04420971
0.04420971
0.04420971
0.04420971
0.04420971
0.04420971
0.04420971
0.04420971
0.04420971
0.04420971
0.04420971
0.04420971
0.04420971
0.04420971
0.04420971
0.04420971
0.04420971
0.04420971
0.04420971
0.04420971
0.04420971
0.04420971
0.04420971
0.04420971
0.04420971
0.04420971
0.04420971
0.04420971
0.04420971
0.04420971
0.04420971
0.04420971
0.04420971
0.04420971
0.04420971
0.04420971
0.04420971
0.04420971
0.04420971
0.04420971
0.04420971
0.04420971
0.04420971
0.04420971
0.04420971
0.04420971
0.04420971
0.04420971
0.04420971
0.04420971
0.04420971
0.04420971
0.04420971
0.04420971
0.04420971
0.04420971
0.04420971
0.04420971
0.04420971
0.04420971
0.04420971
0.04420971
0.04420971
0.04420971
0.04420971
0.04420971
0.04420971
0.04420971
0.04420971
0.04420971


VECTORS d1 FLOAT
0 -0.5358268 0.8443279
-0.03416403 -0.5091681 0.8599887
-0.06862129 -0.4811884 0.8739272
-0.1032787 -0.4519311 0.8860541
-0.1380385 -0.4214474 0.8962854
-0.1727991 -0.3897965 0.9045436
-0.2074553 -0.3570457 0.9107583
-0.2418991 -0.3232697 0.914867
-0.2760206 -0.2885504 0.9168159
-0.3097083 -0.2529769 0.9165606
-0.3428507 -0.2166448 0.914067
-0.3753361 -0.1796553 0.9093111
-0.4070545 -0.1421153 0.9022804
-0.4378978 -0.1041358 0.8929732
-0.467761 -0.06583182 0.8813999
-0.4965428 -0.02732135 0.8675821
-0.5241467 0.01127572 0.8515533
-0.5504818 0.04983832 0.8333583
-0.575463 0.08824521 0.8130529
-0.5990127 0.1263759 0.7907041
-0.6210603 0.1641116 0.7663886
-0.6415435 0.2013362 0.740193
-0.6604082 0.2379371 0.7122127
-0.6776094 0.2738058 0.682551
-0.6931108 0.3088394 0.6513185
-0.7068853 0.3429403 0.6186316
-0.7189152 0.3760177 0.5846123
-0.7291917 0.4079878 0.5493864
-0.7377149 0.4387742 0.5130828
-0.7444937 0.4683082 0.4758324
-0.7495454 0.4965296 0.4377671
-0.7528951 0.5233861 0.3990187
-0.7545755 0.548834 0.359718
-0.7546262 0.5728378 0.3199938
-0.7530932 0.5953706 0.2799723
-0.7500282 0.6164132 0.2397759
-0.7454881 0.6359546 0.1995228
-0.7395341 0.6539911 0.1593264
-0.7322315 0.6705265 0.1192945
-0.7236486 0.6855712 0.07952924
-0.7138561 0.6991418 0.0401263
-0.7029269 0.7112612 0.001174924
-0.6909348 0.7219571 -0.03724241
-0.6779547 0.7312626 -0.07505006
-0.6640614 0.7392146 -0.1121793
-0.6493296 0.7458542 -0.1485684
-0.633833 0.7512256 -0.1841622
-0.6176445 0.7553758 -0.2189125
-0.6008351 0.758354 -0.2527776
-0.583474 0.7602112 -0.2857218
-0.5656285 0.7610001 -0.3177157
-0.5473632 0.7607739 -0.3487357
-0.5287403 0.7595867 -0.3787635
-0.5098191 0.7574926 -0.407786
-0.4906564 0.7545457 -0.4357947
-0.4713056 0.7507997 -0.4627859
-0.4518173 0.7463076 -0.4887598
-0.432239 0.7411213 -0.5137203
-0.4126154 0.735292 -0.5376748
-0.3929878 0.7288691 -0.5606339
-0.3733948 0.721901 -0.5826107
-0.3538719 0.7144343 -0.603621
-0.3344519 0.7065139 -0.6236826
-0.3151648 0.6981831 -0.6428153
-0.2960378 0.6894832 -0.6610405
-0.2770957 0.6804539 -0.6783807
-0.2583607 0.6711329 -0.69486
-0.2398528 0.6615558 -0.710503
-0.2215898 0.6517567 -0.7253352
-0.2035872 0.6417676 -0.7393825
-0.1858588 0.6316188 -0.7526714
-0.1684162 0.6213386 -0.7652283
-0.1512695 0.6109536 -0.7770799
-0.1344272 0.6004889 -0.7882528
-0.1178961 0.5899676 -0.7987732
-0.1016818 0.5794115 -0.8086675
-0.08578849 0.5688406 -0.8179613
-0.07021919 0.5582735 -0.8266801
-0.05497583 0.5477274 -0.8348487
-0.04005935 0.5372182 -0.8424915
-0.02546975 0.5267603 -0.8496322
-0.01120623 0.5163671 -0.856294
0.002732782 0.5060507 -0.8624994
0.01634952 0.495822 -0.8682702
0.02964682 0.4856911 -0.8736276
0.04262809 0.4756669 -0.878592
0.05529718 0.4657575 -0.883183
0.06765838 0.45597 -0.8874197
0.07971636 0.4463108 -0.8913204
0.09147611 0.4367854 -0.8949026
0.1029429 0.4273987 -0.8981832
0.1141222 0.4181549 -0.9011784
0.1250197 0.4090576 -0.9039037
0.1356414 0.4001096 -0.9063739
0.1459931 0.3913134 -0.9086032
0.156081 0.3826709 -0.9106051
0.1659113 0.3741836 -0.9123925
0.1754902 0.3658523 -0.9139777
0.184824 0.3576776 -0.9153725
0.1939189 0.3496599 -0.9165879
0.2027812 0.3417988 -0.9176347
0.2114172 0.3340938 -0.9185228
0.219833 0.3265442 -0.9192618
0.2280348 0.3191489 -0.9198609
0.2360287 0.3119065 -0.9203286
0.2438207 0.3048155 -0.9206731
0.2514167 0.2978738 -0.9209022
0.2588225 0.2910796 -0.9210231
0.266044 0.2844306 -0.9210428
0.2730867 0.2779242 -0.9209678
0.2799561 0.271558 -0.9208044
0.2866577 0.2653292 -0.9205584
0.2931966 0.2592348 -0.9202353
0.2995781 0.2532718 -0.9198404
0.3058071 0.247437 -0.9193786
0.3118884 0.2417271 -0.9188545
0.3178269 0.2361387 -0.9182726
0.323627 0.2306682 -0.917637
0.3292932 0.2253122 -0.9169517
0.3348297 0.2200668 -0.9162203
0.3402407 0.2149284 -0.9154464
0.34553 0.2098932 -0.9146332
0.3507015 0.2049572 -0.9137839
0.3557587 0.2001166 -0.9129015
0.3607051 0.1953675 -0.9119887
0.365544 0.1907058 -0.9110482
0.3702786 0.1861276 -0.9100826
0.3749116 0.1816289 -0.9090942
0.379446 0.1772058 -0.9080853
0.3838842 0.1728542 -0.9070581
0.3882288 0.1685703 -0.9060146
0.3924819 0.16435 -0.9049569
0.3966457 0.1601896 -0.9038869
0.4007221 0.1560852 -0.9028063
0.4047128 0.152033 -0.901717
0.4086195 0.1480292 -0.9006206
0.4124434 0.1440703 -0.8995189
0.4161859 0.1401526 -0.8984133
0.4198481 0.1362726 -0.8973056
0.4234309 0.1324269 -0.8961972
0.4269349 0.1286119 -0.8950897
0.4303609 0.1248246 -0.8939845
0.4337093 0.1210615 -0.8928832
0.4369802 0.1173197 -0.8917872
0.4401738 0.1135961 -0.890698
0.4432901 0.1098876 -0.8896171
0.4463288 0.1061915 -0.888546
0.4492894 0.102505 -0.8874862
0.4521715 0.09882536 -0.8864392
0.4549742 0.09515005 -0.8854066
0.4576967 0.09147658 -0.8843901
0.4603378 0.0878026 -0.8833911
0.4628961 0.08412583 -0.8824115
0.4653702 0.08044413 -0.8814529
0.4677585 0.07675549 -0.8805172
0.4700589 0.073058 -0.8796062
0.4722695 0.06934993 -0.8787219
0.4743878 0.06562965 -0.8778661
0.4764114 0.06189575 -0.8770411
0.4783376 0.05814694 -0.8762489
0.4801634 0.05438215 -0.8754917
0.4818858 0.05060052 -0.8747718
0.4835014 0.04680142 -0.8740916
0.4850068 0.04298444 -0.8734534
0.4863984 0.03914947 -0.8728596
0.4876725 0.03529666 -0.8723128
0.4888255 0.03142648 -0.8718153
0.4898537 0.02753971 -0.8713696
0.4907535 0.02363747 -0.8709778
0.4915214 0.01972118 -0.8706421
0.4921545 0.0157926 -0.8703646
0.49265 0.01185379 -0.8701468
0.4930056 0.007907048 -0.8699902
0.4932196 0.003954894 -0.8698958
0.4932911 -2.688755e-09 -0.8698643
0.4932196 -0.0039549 -0.8698958
0.4930056 -0.007907053 -0.8699902
0.49265 -0.0118538 -0.8701468
0.4921545 -0.01579261 -0.8703646
0.4915214 -0.01972118 -0.8706421
0.4907535 -0.02363747 -0.8709778
0.4898537 -0.02753972 -0.8713696
0.4888255 -0.03142648 -0.8718153
0.4876725 -0.03529666 -0.8723128
0.4863984 -0.03914947 -0.8728596
0.4850068 -0.04298445 -0.8734534
0.4835014 -0.04680142 -0.8740916
0.4818858 -0.05060053 -0.8747718
0.4801634 -0.05438216 -0.8754917
0.4783376 -0.05814694 -0.8762489
0.4764114 -0.06189575 -0.8770411
0.4743878 -0.06562966 -0.8778661
0.4722695 -0.06934993 -0.8787219
0.4700589 -0.07305801 -0.8796062
0.4677585 -0.07675549 -0.8805172
0.4653702 -0.08044414 -0.8814529
0.4628961 -0.08412583 -0.8824115
0.4603378 -0.0878026 -0.8833911
0.4576967 -0.09147659 -0.8843901
0.4549742 -0.09515005 -0.8854066
0.4521715 -0.09882536 -0.8864392
0.4492894 -0.102505 -0.8874862
0.4463288 -0.1061915 -0.888546
0.4432901 -0.1098876 -0.8896171
0.4401738 -0.1135961 -0.890698
0.4369802 -0.1173197 -0.8917872
0.4337093 -0.1210615 -0.8928832
0.4303609 -0.1248246 -0.8939845
0.4269349 -0.1286119 -0.8950897
0.4234309 -0.1324269 -0.8961972
0.4198481 -0.1362726 -0.8973056
0.4161859 -0.1401526 -0.8984133
0.4124434 -0.1440703 -0.8995189
0.4086195 -0.1480292 -0.9006206
0.4047128 -0.152033 -0.901717
0.4007221 -0.1560852 -0.9028063
0.3966457 -0.1601896 -0.9038869
0.3924819 -0.16435 -0.9049569
0.3882288 -0.1685703 -0.9060146
0.3838842 -0.1728542 -0.9070581
0.379446 -0.1772058 -0.9080853
0.3749116 -0.1816289 -0.9090942
0.3702786 -0.1861276 -0.9100826
0.3655441 -0.1907058 -0.9110482