# vtk DataFile Version 2.0
Written badly by Kevin Korner
ASCII
DATASET POLYDATA
POINTS 350 FLOAT
0 0 0
0.00286533 0 0
0.00572936 -3.370103e-05 7.941842e-05
0.008589458 -9.899109e-05 0.0002397007
0.01144294 -0.0001936438 0.0004821324
0.0142871 -0.0003153241 0.0008078303
0.01711918 -0.0004615944 0.001217734
0.01993643 -0.0006299217 0.001712597
0.02273608 -0.0008176857 0.002292984
0.02551535 -0.001022187 0.002959259
0.02827151 -0.001240657 0.003711587
0.03100181 -0.001470265 0.004549925
0.03370359 -0.001708134 0.005474023
0.03637418 -0.001951346 0.006483422
0.03901101 -0.002196953 0.007577455
0.04161157 -0.002441995 0.008755244
0.0441734 -0.002683503 0.01001571
0.04669418 -0.002918514 0.01135757
0.04917163 -0.003144086 0.01277934
0.05160363 -0.003357304 0.01427936
0.05398813 -0.003555293 0.01585577
0.05632323 -0.00373523 0.01750654
0.05860714 -0.003894353 0.01922949
0.06083822 -0.004029974 0.02102226
0.06301495 -0.004139483 0.02288235
0.06513597 -0.004220363 0.02480716
0.06720005 -0.004270193 0.02679391
0.06920611 -0.00428666 0.02883977
0.07115324 -0.004267561 0.03094178
0.07304064 -0.004210812 0.03309691
0.0748677 -0.004114454 0.03530206
0.07663393 -0.003976654 0.03755408
0.07833898 -0.003795711 0.03984976
0.07998267 -0.003570056 0.04218589
0.08156493 -0.003298256 0.04455922
0.08308584 -0.002979014 0.0469665
0.08454561 -0.00261117 0.04940451
0.08594457 -0.002193698 0.05187002
0.08728317 -0.001725707 0.05435985
0.08856196 -0.00120644 0.05687086
0.08978162 -0.0006352653 0.05939995
0.09094291 -1.168188e-05 0.06194409
0.09204669 0.0006646905 0.06450032
0.09309391 0.001394113 0.06706574
0.09408558 0.002176733 0.06963755
0.09502281 0.003012587 0.07221303
0.09590674 0.003901609 0.07478954
0.0967386 0.004843633 0.07736456
0.09751965 0.0058384 0.07993565
0.0982512 0.006885564 0.08250049
0.09893459 0.007984696 0.08505685
0.0995712 0.00913529 0.08760263
0.1001624 0.01033677 0.09013581
0.1007097 0.0115885 0.09265449
0.1012145 0.01288977 0.09515689
0.1016782 0.01423983 0.09764133
0.1021022 0.01563789 0.1001062
0.1024881 0.01708309 0.1025501
0.1028372 0.01857455 0.1049716
0.103151 0.02011136 0.1073695
0.1034309 0.02169257 0.1097426
0.1036784 0.02331721 0.1120898
0.1038947 0.02498429 0.1144102
0.1040813 0.02669281 0.1167029
0.1042394 0.02844175 0.118967
0.1043705 0.03023008 0.1212019
0.1044758 0.03205678 0.123407
0.1045565 0.0339208 0.1255816
0.1046139 0.03582112 0.1277253
0.1046492 0.03775671 0.1298377
0.1046635 0.03972654 0.1319185
0.104658 0.04172959 0.1339674
0.1046337 0.04376486 0.1359841
0.1045918 0.04583135 0.1379686
0.1045332 0.04792808 0.1399206
0.1044588 0.05005409 0.1418402
0.1043698 0.05220841 0.1437272
0.104267 0.05439011 0.1455819
0.1041512 0.05659828 0.1474042
0.1040234 0.05883201 0.1491942
0.1038844 0.06109044 0.1509521
0.1037348 0.06337269 0.1526781
0.1035756 0.06567793 0.1543724
0.1034074 0.06800533 0.1560352
0.1032308 0.07035412 0.1576668
0.1030466 0.0727235 0.1592675
0.1028554 0.07511272 0.1608376
0.1026578 0.07752105 0.1623774
0.1024544 0.07994778 0.1638873
0.1022456 0.08239222 0.1653676
0.102032 0.08485369 0.1668187
0.1018142 0.08733156 0.1682409
0.1015926 0.08982519 0.1696348
0.1013675 0.09233397 0.1710006
0.1011395 0.09485732 0.1723388
0.100909 0.09739468 0.1736499
0.1006763 0.09994549 0.1749341
0.1004417 0.1025092 0.1761921
0.1002057 0.1050854 0.1774241
0.09996847 0.1076734 0.1786306
0.0997304 0.110273 0.1798121
0.09949174 0.1128835 0.180969
0.09925277 0.1155046 0.1821016
0.09901372 0.1181358 0.1832106
0.09877485 0.1207767 0.1842962
0.09853636 0.123427 0.1853589
0.09829848 0.1260862 0.1863991
0.09806138 0.128754 0.1874172
0.09782526 0.1314301 0.1884137
0.09759028 0.1341141 0.1893889
0.09735661 0.1368057 0.1903433
0.09712439 0.1395046 0.1912771
0.09689376 0.1422105 0.1921909
0.09666486 0.1449231 0.193085
0.09643781 0.1476422 0.1939598
0.09621271 0.1503675 0.1948155
0.09598968 0.1530987 0.1956527
0.09576881 0.1558356 0.1964715
0.0955502 0.1585781 0.1972724
0.09533393 0.1613258 0.1980557
0.09512008 0.1640785 0.1988216
0.09490873 0.1668361 0.1995706
0.09469995 0.1695985 0.2003028
0.0944938 0.1723653 0.2010186
0.09429035 0.1751364 0.2017182
0.09408966 0.1779117 0.2024019
0.09389177 0.180691 0.20307
0.09369675 0.1834742 0.2037227
0.09350465 0.1862611 0.2043602
0.0933155 0.1890516 0.2049828
0.09312937 0.1918455 0.2055905
0.09294629 0.1946428 0.2061838
0.09276631 0.1974433 0.2067626
0.09258947 0.2002468 0.2073273
0.09241581 0.2030534 0.2078779
0.09224538 0.2058628 0.2084146
0.09207822 0.2086751 0.2089376
0.09191436 0.21149 0.2094469
0.09175385 0.2143076 0.2099427
0.09159674 0.2171276 0.2104252
0.09144306 0.2199501 0.2108943
0.09129286 0.2227749 0.2113502
0.09114618 0.225602 0.2117929
0.09100307 0.2284314 0.2122226
0.09086357 0.2312628 0.2126392
0.09072774 0.2340963 0.2130429
0.09059561 0.2369318 0.2134336
0.09046724 0.2397692 0.2138114
0.09034268 0.2426085 0.2141763
0.09022198 0.2454495 0.2145283
0.0901052 0.2482923 0.2148674
0.08999239 0.2511368 0.2151936
0.08988361 0.2539829 0.2155069
0.08977891 0.2568305 0.2158073
0.08967835 0.2596796 0.2160947
0.089582 0.2625301 0.216369
0.08948992 0.265382 0.2166303
0.08940216 0.2682352 0.2168785
0.08931879 0.2710897 0.2171135
0.08923987 0.2739453 0.2173353
0.08916548 0.2768021 0.2175438
0.08909566 0.2796599 0.2177388
0.08903049 0.2825188 0.2179205
0.08897003 0.2853785 0.2180886
0.08891434 0.2882391 0.2182431
0.08886349 0.2911005 0.2183839
0.08881752 0.2939627 0.2185109
0.0887765 0.2968255 0.218624
0.08874048 0.2996889 0.2187232
0.08870951 0.3025528 0.2188084
0.08868363 0.3054171 0.2188795
0.08866287 0.3082818 0.2189364
0.08864728 0.3111468 0.2189792
0.08863687 0.3140119 0.2190077
0.08863166 0.3168772 0.219022
0.08863166 0.3197426 0.219022
0.08863687 0.3226078 0.2190077
0.08864728 0.325473 0.2189792
0.08866287 0.328338 0.2189364
0.08868363 0.3312027 0.2188795
0.08870951 0.334067 0.2188084
0.08874048 0.3369309 0.2187232
0.0887765 0.3397943 0.218624
0.08881752 0.3426571 0.2185109
0.08886349 0.3455192 0.2183839
0.08891434 0.3483806 0.2182431
0.08897003 0.3512413 0.2180886
0.08903049 0.354101 0.2179205
0.08909566 0.3569598 0.2177388
0.08916548 0.3598177 0.2175438
0.08923987 0.3626744 0.2173353
0.08931879 0.3655301 0.2171135
0.08940216 0.3683845 0.2168785
0.08948992 0.3712377 0.2166303
0.089582 0.3740897 0.216369
0.08967835 0.3769402 0.2160947
0.08977891 0.3797893 0.2158073
0.08988361 0.3826369 0.2155069
0.08999239 0.385483 0.2151936
0.0901052 0.3883275 0.2148674
0.09022198 0.3911702 0.2145283
0.09034268 0.3940113 0.2141763
0.09046724 0.3968506 0.2138114
0.09059561 0.399688 0.2134336
0.09072774 0.4025235 0.2130429
0.09086357 0.405357 0.2126392
0.09100307 0.4081884 0.2122226
0.09114618 0.4110177 0.2117929
0.09129286 0.4138448 0.2113502
0.09144306 0.4166697 0.2108943
0.09159674 0.4194922 0.2104252
0.09175385 0.4223122 0.2099427
0.09191436 0.4251298 0.2094469
0.09207822 0.4279447 0.2089376
0.09224538 0.4307569 0.2084146
0.09241581 0.4335664 0.2078779
0.09258947 0.4363729 0.2073273
0.09276631 0.4391765 0.2067626
0.09294629 0.441977 0.2061838
0.09312937 0.4447742 0.2055905
0.0933155 0.4475682 0.2049828
0.09350465 0.4503587 0.2043602
0.09369675 0.4531456 0.2037227
0.09389177 0.4559287 0.20307
0.09408966 0.4587081 0.2024019
0.09429035 0.4614834 0.2017182
0.0944938 0.4642545 0.2010186
0.09469995 0.4670213 0.2003028
0.09490873 0.4697836 0.1995706
0.09512008 0.4725413 0.1988216
0.09533393 0.475294 0.1980557
0.0955502 0.4780417 0.1972724
0.09576881 0.4807841 0.1964715
0.09598968 0.4835211 0.1956527
0.09621271 0.4862523 0.1948155
0.09643781 0.4889776 0.1939598
0.09666486 0.4916967 0.193085
0.09689376 0.4944093 0.1921909
0.09712439 0.4971152 0.1912771
0.09735661 0.4998141 0.1903433
0.09759028 0.5025057 0.1893889
0.09782526 0.5051897 0.1884137
0.09806138 0.5078658 0.1874172
0.09829848 0.5105336 0.1863991
0.09853636 0.5131928 0.1853589
0.09877485 0.5158431 0.1842962
0.09901372 0.518484 0.1832106
0.09925277 0.5211152 0.1821016
0.09949174 0.5237363 0.180969
0.0997304 0.5263468 0.1798121
0.09996847 0.5289463 0.1786306
0.1002057 0.5315344 0.1774241
0.1004417 0.5341106 0.1761921
0.1006763 0.5366743 0.1749341
0.100909 0.5392251 0.1736499
0.1011395 0.5417624 0.1723388
0.1013675 0.5442858 0.1710006
0.1015926 0.5467946 0.1696348
0.1018142 0.5492882 0.1682409
0.102032 0.5517661 0.1668187
0.1022456 0.5542276 0.1653676
0.1024544 0.556672 0.1638873
0.1026578 0.5590987 0.1623774
0.1028554 0.5615071 0.1608376
0.1030466 0.5638963 0.1592675
0.1032308 0.5662657 0.1576669
0.1034074 0.5686144 0.1560352
0.1035756 0.5709418 0.1543724
0.1037348 0.5732471 0.1526781
0.1038844 0.5755293 0.1509521
0.1040234 0.5777878 0.1491942
0.1041512 0.5800215 0.1474042
0.104267 0.5822297 0.1455819
0.1043698 0.5844114 0.1437272
0.1044588 0.5865657 0.1418402
0.1045332 0.5886917 0.1399206
0.1045918 0.5907884 0.1379686
0.1046337 0.5928549 0.1359841
0.104658 0.5948902 0.1339674
0.1046635 0.5968932 0.1319185
0.1046492 0.5988631 0.1298377
0.1046139 0.6007986 0.1277253
0.1045565 0.602699 0.1255816
0.1044758 0.604563 0.123407
0.1043705 0.6063897 0.1212019
0.1042394 0.608178 0.118967
0.1040813 0.609927 0.1167029
0.1038947 0.6116355 0.1144102
0.1036784 0.6133026 0.1120898
0.1034309 0.6149272 0.1097426
0.103151 0.6165084 0.1073695
0.1028372 0.6180452 0.1049716
0.1024881 0.6195367 0.1025501
0.1021022 0.6209819 0.1001062
0.1016782 0.6223799 0.09764133
0.1012145 0.62373 0.09515689
0.1007097 0.6250313 0.09265449
0.1001624 0.626283 0.09013581
0.0995712 0.6274845 0.08760263
0.09893459 0.6286351 0.08505685
0.0982512 0.6297342 0.08250049
0.09751965 0.6307814 0.07993565
0.0967386 0.6317761 0.07736456
0.09590674 0.6327182 0.07478954
0.09502281 0.6336072 0.07221303
0.09408558 0.634443 0.06963755
0.09309391 0.6352257 0.06706574
0.09204669 0.6359551 0.06450032
0.09094291 0.6366315 0.06194409
0.08978162 0.637255 0.05939995
0.08856196 0.6378262 0.05687086
0.08728316 0.6383455 0.05435985
0.08594457 0.6388135 0.05187002
0.08454561 0.6392309 0.04940451
0.08308584 0.6395988 0.0469665
0.08156493 0.639918 0.04455922
0.07998267 0.6401898 0.04218589
0.07833898 0.6404155 0.03984976
0.07663393 0.6405964 0.03755408
0.0748677 0.6407342 0.03530206
0.07304064 0.6408306 0.03309691
0.07115324 0.6408873 0.03094178
0.06920611 0.6409064 0.02883977
0.06720005 0.64089 0.02679391
0.06513597 0.6408401 0.02480716
0.06301495 0.6407593 0.02288236
0.06083822 0.6406497 0.02102226
0.05860714 0.6405141 0.01922949
0.05632323 0.640355 0.01750654
0.05398813 0.6401751 0.01585577
0.05160363 0.6399771 0.01427936
0.04917163 0.6397639 0.01277934
0.04669418 0.6395383 0.01135757
0.0441734 0.6393033 0.01001571
0.04161157 0.6390618 0.008755244
0.03901101 0.6388167 0.007577455
0.03637418 0.6385711 0.006483422
0.03370359 0.6383279 0.005474023
0.03100181 0.63809 0.004549925
0.02827151 0.6378604 0.003711587
0.02551535 0.637642 0.002959259
0.02273608 0.6374375 0.002292984
0.01993643 0.6372497 0.001712597
0.01711918 0.6370814 0.001217734
0.0142871 0.6369351 0.0008078303
0.01144294 0.6368134 0.0004821324
0.008589458 0.6367188 0.0002397007
0.00572936 0.6366535 7.941842e-05
0.00286533 0.6366198 0
0 0.6366198 0

LINES 349 1047
2 0 1
2 1 2
2 2 3
2 3 4
2 4 5
2 5 6
2 6 7
2 7 8
2 8 9
2 9 10
2 10 11
2 11 12
2 12 13
2 13 14
2 14 15
2 15 16
2 16 17
2 17 18
2 18 19
2 19 20
2 20 21
2 21 22
2 22 23
2 23 24
2 24 25
2 25 26
2 26 27
2 27 28
2 28 29
2 29 30
2 30 31
2 31 32
2 32 33
2 33 34
2 34 35
2 35 36
2 36 37
2 37 38
2 38 39
2 39 40
2 40 41
2 41 42
2 42 43
2 43 44
2 44 45
2 45 46
2 46 47
2 47 48
2 48 49
2 49 50
2 50 51
2 51 52
2 52 53
2 53 54
2 54 55
2 55 56
2 56 57
2 57 58
2 58 59
2 59 60
2 60 61
2 61 62
2 62 63
2 63 64
2 64 65
2 65 66
2 66 67
2 67 68
2 68 69
2 69 70
2 70 71
2 71 72
2 72 73
2 73 74
2 74 75
2 75 76
2 76 77
2 77 78
2 78 79
2 79 80
2 80 81
2 81 82
2 82 83
2 83 84
2 84 85
2 85 86
2 86 87
2 87 88
2 88 89
2 89 90
2 90 91
2 91 92
2 92 93
2 93 94
2 94 95
2 95 96
2 96 97
2 97 98
2 98 99
2 99 100
2 100 101
2 101 102
2 102 103
2 103 104
2 104 105
2 105 106
2 106 107
2 107 108
2 108 109
2 109 110
2 110 111
2 111 112
2 112 113
2 113 114
2 114 115
2 115 116
2 116 117
2 117 118
2 118 119
2 119 120
2 120 121
2 121 122
2 122 123
2 123 124
2 124 125
2 125 126
2 126 127
2 127 128
2 128 129
2 129 130
2 130 131
2 131 132
2 132 133
2 133 134
2 134 135
2 135 136
2 136 137
2 137 138
2 138 139
2 139 140
2 140 141
2 141 142
2 142 143
2 143 144
2 144 145
2 145 146
2 146 147
2 147 148
2 148 149
2 149 150
2 150 151
2 151 152
2 152 153
2 153 154
2 154 155
2 155 156
2 156 157
2 157 158
2 158 159
2 159 160
2 160 161
2 161 162
2 162 163
2 163 164
2 164 165
2 165 166
2 166 167
2 167 168
2 168 169
2 169 170
2 170 171
2 171 172
2 172 173
2 173 174
2 174 175
2 175 176
2 176 177
2 177 178
2 178 179
2 179 180
2 180 181
2 181 182
2 182 183
2 183 184
2 184 185
2 185 186
2 186 187
2 187 188
2 188 189
2 189 190
2 190 191
2 191 192
2 192 193
2 193 194
2 194 195
2 195 196
2 196 197
2 197 198
2 198 199
2 199 200
2 200 201
2 201 202
2 202 203
2 203 204
2 204 205
2 205 206
2 206 207
2 207 208
2 208 209
2 209 210
2 210 211
2 211 212
2 212 213
2 213 214
2 214 215
2 215 216
2 216 217
2 217 218
2 218 219
2 219 220
2 220 221
2 221 222
2 222 223
2 223 224
2 224 225
2 225 226
2 226 227
2 227 228
2 228 229
2 229 230
2 230 231
2 231 232
2 232 233
2 233 234
2 234 235
2 235 236
2 236 237
2 237 238
2 238 239
2 239 240
2 240 241
2 241 242
2 242 243
2 243 244
2 244 245
2 245 246
2 246 247
2 247 248
2 248 249
2 249 250
2 250 251
2 251 252
2 252 253
2 253 254
2 254 255
2 255 256
2 256 257
2 257 258
2 258 259
2 259 260
2 260 261
2 261 262
2 262 263
2 263 264
2 264 265
2 265 266
2 266 267
2 267 268
2 268 269
2 269 270
2 270 271
2 271 272
2 272 273
2 273 274
2 274 275
2 275 276
2 276 277
2 277 278
2 278 279
2 279 280
2 280 281
2 281 282
2 282 283
2 283 284
2 284 285
2 285 286
2 286 287
2 287 288
2 288 289
2 289 290
2 290 291
2 291 292
2 292 293
2 293 294
2 294 295
2 295 296
2 296 297
2 297 298
2 298 299
2 299 300
2 300 301
2 301 302
2 302 303
2 303 304
2 304 305
2 305 306
2 306 307
2 307 308
2 308 309
2 309 310
2 310 311
2 311 312
2 312 313
2 313 314
2 314 315
2 315 316
2 316 317
2 317 318
2 318 319
2 319 320
2 320 321
2 321 322
2 322 323
2 323 324
2 324 325
2 325 326
2 326 327
2 327 328
2 328 329
2 329 330
2 330 331
2 331 332
2 332 333
2 333 334
2 334 335
2 335 336
2 336 337
2 337 338
2 338 339
2 339 340
2 340 341
2 341 342
2 342 343
2 343 344
2 344 345
2 345 346
2 346 347
2 347 348
2 348 349


POINT_DATA 350
SCALARS a FLOAT 1
LOOKUP_TABLE default
0.0005894628
0.0005894628
0.0005894628
0.0005894628
0.0005894628
0.0005894628
0.0005894628
0.0005894628
0.0005894628
0.0005894628
0.0005894628
0.0005894628
0.0005894628
0.0005894628
0.0005894628
0.0005894628
0.0005894628
0.0005894628
0.0005894628
0.0005894628
0.0005894628
0.0005894628
0.0005894628
0.0005894628
0.0005894628
0.0005894628
0.0005894628
0.0005894628
0.0005894628
0.0005894628
0.0005894628
0.0005894628
0.0005894628
0.0005894628
0.0005894628
0.0005894628
0.0005894628
0.0005894628
0.0005894628
0.0005894628
0.0005894628
0.0005894628
0.0005894628
0.0005894628
0.0005894628
0.0005894628
0.0005894628
0.0005894628
0.0005894628
0.0005894628
0.0005894628
0.0005894628
0.0005894628
0.0005894628
0.0005894628
0.0005894628
0.0005894628
0.0005894628
0.0005894628
0.0005894628
0.0005894628
0.0005894628
0.0005894628
0.0005894628
0.0005894628
0.0005894628
0.0005894628
0.0005894628
0.0005894628
0.0005894628
0.0005894628
0.0005894628
0.0005894628
0.0005894628
0.0005894628
0.0005894628
0.0005894628
0.0005894628
0.0005894628
0.0005894628
0.0005894628
0.0005894628
0.0005894628
0.0005894628
0.0005894628
0.0005894628
0.0005894628
0.0005894628
0.0005894628
0.0005894628
0.0005894628
0.0005894628
0.0005894628
0.0005894628
0.0005894628
0.0005894628
0.0005894628
0.0005894628
0.0005894628
0.0005894628
0.0005894628
0.0005894628
0.0005894628
0.0005894628
0.0005894628
0.0005894628
0.0005894628
0.0005894628
0.0005894628
0.0005894628
0.0005894628
0.0005894628
0.0005894628
0.0005894628
0.0005894628
0.0005894628
0.0005894628
0.0005894628
0.0005894628
0.0005894628
0.0005894628
0.0005894628
0.0005894628
0.0005894628
0.0005894628
0.0005894628
0.0005894628
0.0005894628
0.0005894628
0.0005894628
0.0005894628
0.0005894628
0.0005894628
0.0005894628
0.0005894628
0.0005894628
0.0005894628
0.0005894628
0.0005894628
0.0005894628
0.0005894628
0.0005894628
0.0005894628
0.0005894628
0.0005894628
0.0005894628
0.0005894628
0.0005894628
0.0005894628
0.0005894628
0.0005894628
0.0005894628
0.0005894628
0.0005894628
0.0005894628
0.0005894628
0.0005894628
0.0005894628
0.0005894628
0.0005894628
0.0005894628
0.0005894628
0.0005894628
0.0005894628
0.0005894628
0.0005894628
0.0005894628
0.0005894628
0.0005894628
0.0005894628
0.0005894628
0.0005894628
0.0005894628
0.0005894628
0.0005894628
0.0005894628
0.0005894628
0.0005894628
0.0005894628
0.0005894628
0.0005894628
0.0005894628
0.0005894628
0.0005894628
0.0005894628
0.0005894628
0.0005894628
0.0005894628
0.0005894628
0.0005894628
0.0005894628
0.0005894628
0.0005894628
0.0005894628
0.0005894628
0.0005894628
0.0005894628
0.0005894628
0.0005894628
0.0005894628
0.0005894628
0.0005894628
0.0005894628
0.0005894628
0.0005894628
0.0005894628
0.0005894628
0.0005894628
0.0005894628
0.0005894628
0.0005894628
0.0005894628
0.0005894628
0.0005894628
0.0005894628
0.0005894628
0.0005894628
0.0005894628
0.0005894628
0.0005894628
0.0005894628
0.0005894628
0.0005894628
0.0005894628
0.0005894628
0.0005894628
0.0005894628
0.0005894628
0.0005894628
0.0005894628
0.0005894628
0.0005894628
0.0005894628
0.0005894628
0.0005894628
0.0005894628
0.0005894628
0.0005894628
0.0005894628
0.0005894628
0.0005894628
0.0005894628
0.0005894628
0.0005894628
0.0005894628
0.0005894628
0.0005894628
0.0005894628
0.0005894628
0.0005894628
0.0005894628
0.0005894628
0.0005894628
0.0005894628
0.0005894628
0.0005894628
0.0005894628
0.0005894628
0.0005894628
0.0005894628
0.0005894628
0.0005894628
0.0005894628
0.0005894628
0.0005894628
0.0005894628
0.0005894628
0.0005894628
0.0005894628
0.0005894628
0.0005894628
0.0005894628
0.0005894628
0.0005894628
0.0005894628
0.0005894628
0.0005894628
0.0005894628
0.0005894628
0.0005894628
0.0005894628
0.0005894628
0.0005894628
0.0005894628
0.0005894628
0.0005894628
0.0005894628
0.0005894628
0.0005894628
0.0005894628
0.0005894628
0.0005894628
0.0005894628
0.0005894628
0.0005894628
0.0005894628
0.0005894628
0.0005894628
0.0005894628
0.0005894628
0.0005894628
0.0005894628
0.0005894628
0.0005894628
0.0005894628
0.0005894628
0.0005894628
0.0005894628
0.0005894628
0.0005894628
0.0005894628
0.0005894628
0.0005894628
0.0005894628
0.0005894628
0.0005894628
0.0005894628
0.0005894628
0.0005894628
0.0005894628
0.0005894628
0.0005894628
0.0005894628
0.0005894628
0.0005894628
0.0005894628
0.0005894628
0.0005894628
0.0005894628
0.0005894628
0.0005894628
0.0005894628
0.0005894628
0.0005894628
0.0005894628
0.0005894628
0.0005894628
0.0005894628
0.0005894628
0.0005894628
0.0005894628
0.0005894628
0.0005894628
0.0005894628
0.0005894628
0.0005894628
0.0005894628
0.0005894628
0.0005894628
0.0005894628


SCALARS b FLOAT 1
LOOKUP_TABLE default
0.04420971
0.04420971
0.04420971
0.04420971
0.04420971
0.04420971
0.04420971
0.04420971
0.04420971
0.04420971
0.04420971
0.04420971
0.04420971
0.04420971
0.04420971
0.04420971
0.04420971
0.04420971
0.04420971
0.04420971
0.04420971
0.04420971
0.04420971
0.04420971
0.04420971
0.04420971
0.04420971
0.04420971
0.04420971
0.04420971
0.04420971
0.04420971
0.04420971
0.04420971
0.04420971
0.04420971
0.04420971
0.04420971
0.04420971
0.04420971
0.04420971
0.04420971
0.04420971
0.04420971
0.04420971
0.04420971
0.04420971
0.04420971
0.04420971
0.04420971
0.04420971
0.04420971
0.04420971
0.04420971
0.04420971
0.04420971
0.04420971
0.04420971
0.04420971
0.04420971
0.04420971
0.04420971
0.04420971
0.04420971
0.04420971
0.04420971
0.04420971
0.04420971
0.04420971
0.04420971
0.04420971
0.04420971
0.04420971
0.04420971
0.04420971
0.04420971
0.04420971
0.04420971
0.04420971
0.04420971
0.04420971
0.04420971
0.04420971
0.04420971
0.04420971
0.04420971
0.04420971
0.04420971
0.04420971
0.04420971
0.04420971
0.04420971
0.04420971
0.04420971
0.04420971
0.04420971
0.04420971
0.04420971
0.04420971
0.04420971
0.04420971
0.04420971
0.04420971
0.04420971
0.04420971
0.04420971
0.04420971
0.04420971
0.04420971
0.04420971
0.04420971
0.04420971
0.04420971
0.04420971
0.04420971
0.04420971
0.04420971
0.04420971
0.04420971
0.04420971
0.04420971
0.04420971
0.04420971
0.04420971
0.04420971
0.04420971
0.04420971
0.04420971
0.04420971
0.04420971
0.04420971
0.04420971
0.04420971
0.04420971
0.04420971
0.04420971
0.04420971
0.04420971
0.04420971
0.04420971
0.04420971
0.04420971
0.04420971
0.04420971
0.04420971
0.04420971
0.04420971
0.04420971
0.04420971
0.04420971
0.04420971
0.04420971
0.04420971
0.04420971
0.04420971
0.04420971
0.04420971
0.04420971
0.04420971
0.04420971
0.04420971
0.04420971
0.04420971
0.04420971
0.04420971
0.04420971
0.04420971
0.04420971
0.04420971
0.04420971
0.04420971
0.04420971
0.04420971
0.04420971
0.04420971
0.04420971
0.04420971
0.04420971
0.04420971
0.04420971
0.04420971
0.04420971
0.04420971
0.04420971
0.04420971
0.04420971
0.04420971
0.04420971
0.04420971
0.04420971
0.04420971
0.04420971
0.04420971
0.04420971
0.04420971
0.04420971
0.04420971
0.04420971
0.04420971
0.04420971
0.04420971
0.04420971
0.04420971
0.04420971
0.04420971
0.04420971
0.04420971
0.04420971
0.04420971
0.04420971
0.04420971
0.04420971
0.04420971
0.04420971
0.04420971
0.04420971
0.04420971
0.04420971
0.04420971
0.04420971
0.04420971
0.04420971
0.04420971
0.04420971
0.04420971
0.04420971
0.04420971
0.04420971
0.04420971
0.04420971
0.04420971
0.04420971
0.04420971
0.04420971
0.04420971
0.04420971
0.04420971
0.04420971
0.04420971
0.04420971
0.04420971
0.04420971
0.04420971
0.04420971
0.04420971
0.04420971
0.04420971
0.04420971
0.04420971
0.04420971
0.04420971
0.04420971
0.04420971
0.04420971
0.04420971
0.04420971
0.04420971
0.04420971
0.04420971
0.04420971
0.04420971
0.04420971
0.04420971
0.04420971
0.04420971
0.04420971
0.04420971
0.04420971
0.04420971
0.04420971
0.04420971
0.04420971
0.04420971
0.04420971
0.04420971
0.04420971
0.04420971
0.04420971
0.04420971
0.04420971
0.04420971
0.04420971
0.04420971
0.04420971
0.04420971
0.04420971
0.04420971
0.04420971
0.04420971
0.04420971
0.04420971
0.04420971
0.04420971
0.04420971
0.04420971
0.04420971
0.04420971
0.04420971
0.04420971
0.04420971
0.04420971
0.04420971
0.04420971
0.04420971
0.04420971
0.04420971
0.04420971
0.04420971
0.04420971
0.04420971
0.04420971
0.04420971
0.04420971
0.04420971
0.04420971
0.04420971
0.04420971
0.04420971
0.04420971
0.04420971
0.04420971
0.04420971
0.04420971
0.04420971
0.04420971
0.04420971
0.04420971
0.04420971
0.04420971
0.04420971
0.04420971
0.04420971
0.04420971
0.04420971
0.04420971
0.04420971
0.04420971
0.04420971
0.04420971
0.04420971
0.04420971
0.04420971
0.04420971
0.04420971
0.04420971
0.04420971
0.04420971
0.04420971
0.04420971
0.04420971


VECTORS d1 FLOAT
0 -0.4037689 0.914861
-0.03010615 -0.3770916 0.9256865
-0.06037611 -0.3496049 0.9349498
-0.09074288 -0.3213562 0.9426006
-0.1211374 -0.2923974 0.9485934
-0.151489 -0.2627839 0.9528881
-0.1817256 -0.232575 0.95545
-0.2117741 -0.2018336 0.9562505
-0.2415608 -0.1706256 0.9552671
-0.2710122 -0.1390196 0.9524841
-0.3000547 -0.1070869 0.9478922
-0.3286157 -0.07490091 0.941489
-0.3566236 -0.04253659 0.9332793
-0.3840085 -0.01007024 0.9232746
-0.4107025 0.02242103 0.9114937
-0.4366402 0.05485975 0.897962
-0.461759 0.08716851 0.8827119
-0.4859994 0.1192705 0.8657824
-0.5093056 0.1510897 0.8472188
-0.5316257 0.1825519 0.8270725
-0.5529117 0.2135845 0.8054007
-0.5731204 0.2441172 0.7822658
-0.5922128 0.2740824 0.7577354
-0.6101549 0.3034155 0.7318812
-0.6269174 0.3320553 0.7047792
-0.6424763 0.3599443 0.6765089
-0.6568124 0.3870288 0.6471524
-0.6699113 0.4132593 0.6167946
-0.6817641 0.4385905 0.5855221
-0.6923663 0.4629818 0.5534228
-0.7017184 0.486397 0.5205854
-0.7098256 0.5088045 0.4870991
-0.7166974 0.5301775 0.4530526
-0.7223476 0.5504937 0.4185339
-0.726794 0.5697353 0.3836301
-0.7300582 0.5878894 0.3484265
-0.7321652 0.6049472 0.3130064
-0.7331433 0.6209041 0.2774507
-0.7330237 0.6357599 0.2418379
-0.7318402 0.649518 0.2062432
-0.7296289 0.6621857 0.1707388
-0.7264279 0.6737738 0.1353933
-0.722277 0.6842963 0.1002719
-0.7172176 0.6937702 0.0654358
-0.711292 0.7022152 0.03094254
-0.7045435 0.7096538 -0.003154362
-0.697016 0.7161104 -0.03680532
-0.6887537 0.7216116 -0.06996474
-0.6798009 0.7261858 -0.102591
-0.6702018 0.7298629 -0.1346463
-0.6600005 0.732674 -0.1660968
-0.6492402 0.7346514 -0.1969125
-0.6379639 0.735828 -0.2270667
-0.6262134 0.7362376 -0.2565366
-0.6140297 0.7359143 -0.2853027
-0.6014529 0.7348925 -0.3133486
-0.5885217 0.7332067 -0.3406613
-0.5752736 0.7308913 -0.3672304
-0.5617448 0.7279806 -0.3930485
-0.5479701 0.7245083 -0.4181107
-0.5339828 0.7205079 -0.4424147
-0.5198149 0.7160122 -0.4659604
-0.5054967 0.7110535 -0.4887495
-0.4910571 0.7056631 -0.5107861
-0.4765235 0.6998718 -0.5320759
-0.4619219 0.6937093 -0.5526261
-0.4472765 0.6872045 -0.5724454
-0.4326103 0.6803852 -0.591544
-0.4179448 0.6732784 -0.609933
-0.4033001 0.66591 -0.6276248
-0.3886948 0.6583049 -0.6446325
-0.3741463 0.6504867 -0.6609701
-0.3596707 0.6424785 -0.6766523
-0.3452828 0.6343018 -0.6916943
-0.3309961 0.6259773 -0.7061119
-0.3168232 0.6175248 -0.719921
-0.3027753 0.6089629 -0.733138
-0.2888628 0.6003091 -0.7457796
-0.275095 0.5915803 -0.7578624
-0.2614802 0.5827921 -0.7694033
-0.2480259 0.5739593 -0.7804191
-0.2347385 0.5650958 -0.7909264
-0.2216239 0.5562147 -0.800942
-0.208687 0.547328 -0.8104824
-0.1959322 0.5384473 -0.819564
-0.1833631 0.5295829 -0.8282028
-0.1709825 0.5207448 -0.8364148
-0.1587931 0.5119421 -0.8442156
-0.1467965 0.5031831 -0.8516205
-0.1349941 0.4944756 -0.8586446
-0.1233869 0.4858266 -0.8653024
-0.1119751 0.4772427 -0.8716083
-0.1007589 0.4687297 -0.8775762
-0.08973792 0.4602931 -0.8832199
-0.07891144 0.4519375 -0.8885524
-0.06827848 0.4436674 -0.8935867
-0.05783775 0.4354866 -0.8983352
-0.0475877 0.4273985 -0.90281
-0.03752655 0.4194061 -0.9070228
-0.02765231 0.4115118 -0.9109848
-0.01796278 0.403718 -0.9147071
-0.008455608 0.3960263 -0.9182002
0.0008717156 0.3884383 -0.9214743
0.01002184 0.3809549 -0.9245393
0.01899751 0.3735772 -0.9274045
0.02780161 0.3663055 -0.9300792
0.03643708 0.3591401 -0.9325721
0.04490693 0.3520809 -0.9348917
0.05321425 0.3451276 -0.937046
0.06136215 0.3382797 -0.9390429
0.0693538 0.3315364 -0.9408898
0.07719237 0.3248967 -0.942594
0.08488106 0.3183594 -0.9441623
0.09242305 0.311923 -0.9456014
0.09982153 0.305586 -0.9469176
0.1070797 0.2993465 -0.9481169
0.1142006 0.2932026 -0.9492052
0.1211874 0.2871523 -0.950188
0.1280431 0.2811931 -0.9510707
0.1347708 0.2753228 -0.9518583
0.1413733 0.2695387 -0.9525558
0.1478536 0.2638381 -0.9531677
0.1542145 0.2582184 -0.9536987
0.1604586 0.2526765 -0.9541528
0.1665886 0.2472094 -0.9545343
0.172607 0.2418142 -0.954847
0.1785163 0.2364875 -0.9550946
0.1843187 0.2312261 -0.9552807
0.1900164 0.2260267 -0.9554087
0.1956116 0.220886 -0.9554818
0.2011062 0.2158005 -0.9555033
0.2065019 0.2107668 -0.955476
0.2118006 0.2057813 -0.9554028
0.2170037 0.2008408 -0.9552866
0.2221126 0.1959415 -0.9551298
0.2271286 0.19108 -0.9549351
0.2320528 0.1862529 -0.9547049
0.236886 0.1814567 -0.9544415
0.2416292 0.1766878 -0.9541471
0.2462828 0.1719429 -0.9538241
0.2508473 0.1672185 -0.9534745
0.255323 0.1625113 -0.9531003
0.2597099 0.157818 -0.9527036
0.2640079 0.1531353 -0.9522864
0.2682167 0.14846 -0.9518505
0.2723358 0.1437889 -0.9513979
0.2763645 0.1391189 -0.9509304
0.2803018 0.134447 -0.9504498
0.2841465 0.1297702 -0.9499581
0.2878973 0.1250856 -0.9494571
0.2915524 0.1203904 -0.9489485
0.2951101 0.1156818 -0.9484344
0.298568 0.1109572 -0.9479165
0.3019238 0.1062141 -0.9473967
0.3051747 0.1014501 -0.9468771
0.3083175 0.09666281 -0.9463597
0.3113488 0.09185013 -0.9458464
0.314265 0.08701004 -0.9453395
0.3170618 0.08214072 -0.9448411
0.3197347 0.07724055 -0.9443535
0.322279 0.07230816 -0.9438791
0.3246892 0.06734242 -0.9434203
0.3269598 0.06234253 -0.9429797
0.3290847 0.05730801 -0.9425599
0.3310576 0.05223882 -0.9421635
0.3328718 0.04713533 -0.9417933
0.3345206 0.04199843 -0.9414521
0.335997 0.03682955 -0.9411427
0.3372941 0.03163074 -0.9408678
0.3384053 0.02640464 -0.9406299
0.3393242 0.02115454 -0.9404316
0.3400453 0.01588434 -0.9402749
0.340564 0.01059851 -0.9401616
0.3408767 0.005301975 -0.9400931
0.3409812 -1.555854e-09 -0.9400701
0.3408767 -0.005301979 -0.9400931
0.340564 -0.01059851 -0.9401616
0.3400453 -0.01588434 -0.9402749
0.3393242 -0.02115454 -0.9404316
0.3384053 -0.02640464 -0.9406299
0.3372941 -0.03163074 -0.9408678
0.335997 -0.03682956 -0.9411427
0.3345206 -0.04199843 -0.9414521
0.3328718 -0.04713533 -0.9417933
0.3310576 -0.05223882 -0.9421635
0.3290847 -0.05730802 -0.9425599
0.3269598 -0.06234253 -0.9429797
0.3246892 -0.06734243 -0.9434203
0.322279 -0.07230816 -0.9438791
0.3197347 -0.07724056 -0.9443535
0.3170618 -0.08214072 -0.9448411
0.314265 -0.08701004 -0.9453395
0.3113488 -0.09185013 -0.9458464
0.3083175 -0.09666282 -0.9463597
0.3051747 -0.1014501 -0.9468771
0.3019238 -0.1062141 -0.9473967
0.298568 -0.1109572 -0.9479165
0.2951101 -0.1156818 -0.9484344
0.2915524 -0.1203904 -0.9489485
0.2878973 -0.1250856 -0.9494571
0.2841465 -0.1297702 -0.9499581
0.2803018 -0.134447 -0.9504498
0.2763645 -0.1391189 -0.9509304
0.2723358 -0.1437889 -0.9513979
0.2682167 -0.14846 -0.9518505
0.2640079 -0.1531353 -0.9522864
0.2597099 -0.157818 -0.9527036
0.255323 -0.1625113 -0.9531003
0.2508473 -0.1672185 -0.9534745
0.2462828 -0.1719429 -0.9538241
0.2416292 -0.1766878 -0.9541471
0.236886 -0.1814567 -0.9544415
0.2320528 -0.1862529 -0.9547049
0.2271286 -0.19108 -0.9549351
0.2221126 -0.1959415 -0.9551298
0.2170037 -0.2008408 -0.9552865
0.2118006 -0.2057813 -0.9554028
0.2065019 -0.2107668 -0.955476
0.2011062 -0.2158005 -0.9555033
0.1956116 -0.220886 -0.9554818
0.1900164 -0.2260267 -0.9554087
0.1843187 -0.2312261 -0.9552807
0.1785163 -0.2364875 -0.9550946
0.172607 -0.2418142 -0.954847
0.1665886 -0.2472094 -0.9545343
0.1604586 -0.2526765 -0.9541528
0.1542145 -0.2582184 -0.9536987