# vtk DataFile Version 2.0
Written badly by Kevin Korner
ASCII
DATASET POLYDATA
POINTS 350 FLOAT
0 0 0
0.00286533 0 0
0.005729914 -4.613262e-06 6.518868e-05
0.008592258 -1.23188e-05 0.0001957105
0.01145087 -2.158692e-05 0.0003916225
0.01430425 -3.088245e-05 0.0006528936
0.0171509 -3.866812e-05 0.0009794047
0.01998935 -4.340781e-05 0.001370948
0.02281811 -4.356992e-05 0.00182723
0.02563574 -3.763065e-05 0.002347869
0.02844078 -2.407728e-05 0.002932396
0.03123182 -1.411392e-06 0.00358026
0.03400744 3.184797e-05 0.004290827
0.03676629 7.716121e-05 0.005063379
0.039507 0.0001359652 0.005897122
0.04222828 0.0002096703 0.006791184
0.04492883 0.0002996576 0.007744618
0.04760741 0.0004072765 0.008756406
0.05026283 0.0005338418 0.009825462
0.0528939 0.0006806315 0.01095063
0.05549951 0.0008488846 0.01213071
0.05807859 0.001039799 0.01336441
0.0606301 0.00125453 0.01465042
0.06315305 0.001494187 0.01598735
0.06564652 0.001759835 0.01737378
0.06810961 0.00205249 0.01880823
0.07054149 0.00237312 0.0202892
0.07294137 0.002722641 0.02181514
0.07530853 0.003101921 0.02338447
0.07764229 0.003511776 0.0249956
0.07994202 0.003952969 0.02664687
0.08220714 0.004426213 0.02833666
0.08443713 0.004932166 0.03006329
0.08663153 0.005471435 0.03182508
0.08878992 0.006044577 0.03362035
0.09091193 0.006652095 0.0354474
0.09299724 0.007294439 0.03730454
0.09504559 0.007972013 0.03919008
0.09705676 0.008685168 0.04110234
0.09903058 0.009434207 0.04303963
0.1009669 0.01021938 0.04500028
0.1028657 0.0110409 0.04698265
0.1047269 0.01189893 0.0489851
0.1065506 0.01279359 0.05100602
0.1083367 0.01372494 0.0530438
0.1100853 0.01469302 0.05509688
0.1117966 0.01569783 0.05716371
0.1134708 0.01673931 0.05924279
0.1151081 0.01781738 0.06133261
0.1167086 0.01893192 0.06343174
0.1182726 0.02008277 0.06553874
0.1198004 0.02126976 0.06765223
0.1212924 0.02249265 0.06977086
0.1227489 0.02375121 0.07189332
0.1241702 0.02504515 0.07401832
0.1255568 0.02637419 0.07614463
0.1269091 0.02773798 0.07827104
0.1282274 0.02913619 0.08039639
0.1295123 0.03056844 0.08251956
0.1307642 0.03203435 0.08463947
0.1319835 0.03353351 0.08675507
0.1331709 0.03506549 0.08886535
0.1343268 0.03662986 0.09096935
0.1354516 0.03822617 0.09306616
0.1365461 0.03985394 0.09515487
0.1376106 0.0415127 0.09723464
0.1386457 0.04320197 0.09930466
0.139652 0.04492124 0.1013642
0.14063 0.04667003 0.1034124
0.1415804 0.04844782 0.1054487
0.1425035 0.05025409 0.1074724
0.1434001 0.05208834 0.1094828
0.1442706 0.05395003 0.1114794
0.1451157 0.05583865 0.1134616
0.1459358 0.05775367 0.1154289
0.1467316 0.05969456 0.1173807
0.1475036 0.06166081 0.1193167
0.1482524 0.06365189 0.1212364
0.1489785 0.06566727 0.1231393
0.1496824 0.06770644 0.1250251
0.1503647 0.06976888 0.1268935
0.151026 0.07185408 0.1287442
0.1516666 0.07396152 0.1305767
0.1522873 0.07609072 0.1323909
0.1528885 0.07824116 0.1341866
0.1534706 0.08041236 0.1359634
0.1540343 0.08260382 0.1377212
0.1545799 0.08481508 0.1394598
0.155108 0.08704564 0.1411791
0.1556191 0.08929505 0.1428788
0.1561136 0.09156284 0.1445589
0.156592 0.09384857 0.1462192
0.1570547 0.09615178 0.1478597
0.1575022 0.09847204 0.1494803
0.1579348 0.1008089 0.1510809
0.1583531 0.103162 0.1526615
0.1587575 0.1055309 0.1542219
0.1591483 0.1079151 0.1557623
0.1595259 0.1103143 0.1572826
0.1598908 0.1127281 0.1587828
0.1602432 0.1151562 0.1602628
0.1605837 0.117598 0.1617228
0.1609125 0.1200534 0.1631627
0.16123 0.1225218 0.1645825
0.1615365 0.1250031 0.1659824
0.1618324 0.1274968 0.1673623
0.1621179 0.1300026 0.1687223
0.1623935 0.1325201 0.1700624
0.1626594 0.1350492 0.1713828
0.1629158 0.1375894 0.1726834
0.1631632 0.1401405 0.1739643
0.1634018 0.1427022 0.1752257
0.1636318 0.1452741 0.1764676
0.1638535 0.1478561 0.17769
0.1640672 0.1504479 0.178893
0.1642732 0.1530491 0.1800767
0.1644716 0.1556596 0.1812412
0.1646627 0.1582791 0.1823866
0.1648467 0.1609074 0.1835129
0.1650239 0.1635442 0.1846201
0.1651945 0.1661893 0.1857084
0.1653586 0.1688425 0.1867779
0.1655165 0.1715035 0.1878285
0.1656684 0.1741723 0.1888604
0.1658145 0.1768485 0.1898736
0.1659549 0.179532 0.1908682
0.1660898 0.1822227 0.1918441
0.1662193 0.1849202 0.1928016
0.1663438 0.1876244 0.1937405
0.1664632 0.1903353 0.194661
0.1665779 0.1930525 0.195563
0.1666878 0.195776 0.1964466
0.1667932 0.1985055 0.1973118
0.1668942 0.201241 0.1981587
0.1669909 0.2039822 0.1989871
0.1670835 0.2067291 0.1997972
0.1671721 0.2094814 0.2005889
0.1672568 0.2122391 0.2013623
0.1673378 0.215002 0.2021172
0.1674151 0.21777 0.2028536
0.1674889 0.220543 0.2035716
0.1675593 0.2233207 0.2042711
0.1676263 0.2261032 0.204952
0.1676901 0.2288902 0.2056143
0.1677509 0.2316816 0.206258
0.1678086 0.2344774 0.2068828
0.1678634 0.2372773 0.2074888
0.1679153 0.2400814 0.208076
0.1679645 0.2428894 0.208644
0.1680111 0.2457013 0.209193
0.1680551 0.2485169 0.2097228
0.1680966 0.2513361 0.2102332
0.1681357 0.2541588 0.2107241
0.1681725 0.2569848 0.2111955
0.1682071 0.2598141 0.2116471
0.1682394 0.2626465 0.2120788
0.1682696 0.265482 0.2124905
0.1682978 0.2683203 0.212882
0.1683241 0.2711614 0.2132532
0.1683484 0.2740051 0.2136038
0.1683709 0.2768512 0.2139338
0.1683915 0.2796998 0.2142428
0.1684105 0.2825505 0.2145309
0.1684278 0.2854034 0.2147976
0.1684434 0.2882581 0.215043
0.1684574 0.2911147 0.2152668
0.16847 0.2939728 0.2154688
0.168481 0.2968325 0.2156489
0.1684905 0.2996934 0.2158069
0.1684987 0.3025555 0.2159426
0.1685054 0.3054186 0.2160559
0.1685107 0.3082825 0.2161467
0.1685147 0.311147 0.2162149
0.1685174 0.314012 0.2162604
0.1685187 0.3168772 0.2162832
0.1685187 0.3197426 0.2162832
0.1685174 0.3226078 0.2162604
0.1685147 0.3254728 0.2162149
0.1685107 0.3283373 0.2161467
0.1685054 0.3312012 0.2160559
0.1684987 0.3340642 0.2159426
0.1684905 0.3369263 0.2158069
0.168481 0.3397873 0.2156489
0.16847 0.3426469 0.2154688
0.1684574 0.3455051 0.2152668
0.1684434 0.3483617 0.215043
0.1684278 0.3512164 0.2147976
0.1684105 0.3540692 0.2145309
0.1683915 0.35692 0.2142428
0.1683709 0.3597685 0.2139338
0.1683484 0.3626147 0.2136038
0.1683241 0.3654584 0.2132532
0.1682978 0.3682995 0.212882
0.1682696 0.3711378 0.2124905
0.1682394 0.3739732 0.2120788
0.1682071 0.3768057 0.2116471
0.1681725 0.379635 0.2111955
0.1681357 0.382461 0.2107241
0.1680966 0.3852837 0.2102332
0.1680551 0.3881029 0.2097228
0.1680111 0.3909185 0.209193
0.1679645 0.3937304 0.208644
0.1679153 0.3965384 0.208076
0.1678634 0.3993424 0.2074888
0.1678086 0.4021424 0.2068828
0.1677509 0.4049382 0.206258
0.1676901 0.4077296 0.2056143
0.1676263 0.4105166 0.204952
0.1675593 0.4132991 0.2042711
0.1674889 0.4160768 0.2035716
0.1674151 0.4188497 0.2028536
0.1673378 0.4216177 0.2021172
0.1672568 0.4243806 0.2013623
0.1671721 0.4271383 0.2005889
0.1670835 0.4298907 0.1997972
0.1669909 0.4326376 0.1989871
0.1668942 0.4353788 0.1981587
0.1667932 0.4381143 0.1973118
0.1666878 0.4408438 0.1964466
0.1665779 0.4435673 0.195563
0.1664632 0.4462845 0.194661
0.1663438 0.4489953 0.1937405
0.1662193 0.4516996 0.1928016
0.1660898 0.4543971 0.1918441
0.1659549 0.4570877 0.1908682
0.1658145 0.4597712 0.1898736
0.1656684 0.4624475 0.1888604
0.1655165 0.4651162 0.1878285
0.1653586 0.4677773 0.1867779
0.1651945 0.4704305 0.1857084
0.1650239 0.4730756 0.1846201
0.1648467 0.4757124 0.1835129
0.1646627 0.4783407 0.1823866
0.1644716 0.4809602 0.1812412
0.1642732 0.4835707 0.1800767
0.1640672 0.4861719 0.178893
0.1638535 0.4887637 0.17769
0.1636318 0.4913456 0.1764676
0.1634018 0.4939176 0.1752257
0.1631632 0.4964793 0.1739643
0.1629158 0.4990304 0.1726834
0.1626594 0.5015706 0.1713828
0.1623935 0.5040996 0.1700624
0.1621179 0.5066172 0.1687223
0.1618324 0.509123 0.1673623
0.1615365 0.5116167 0.1659824
0.16123 0.5140979 0.1645825
0.1609125 0.5165664 0.1631627
0.1605837 0.5190217 0.1617228
0.1602432 0.5214636 0.1602628
0.1598908 0.5238916 0.1587828
0.1595259 0.5263055 0.1572826
0.1591483 0.5287047 0.1557623
0.1587575 0.5310889 0.1542219
0.1583531 0.5334578 0.1526615
0.1579348 0.5358109 0.1510809
0.1575022 0.5381477 0.1494803
0.1570547 0.540468 0.1478597
0.156592 0.5427712 0.1462192
0.1561136 0.5450569 0.1445589
0.1556191 0.5473247 0.1428788
0.155108 0.5495741 0.1411791
0.1545799 0.5518047 0.1394598
0.1540343 0.5540159 0.1377212
0.1534706 0.5562074 0.1359634
0.1528885 0.5583786 0.1341866
0.1522873 0.5605291 0.1323909
0.1516666 0.5626582 0.1305767
0.151026 0.5647657 0.1287442
0.1503647 0.5668509 0.1268935
0.1496824 0.5689133 0.1250251
0.1489785 0.5709525 0.1231393
0.1482524 0.5729679 0.1212364
0.1475036 0.574959 0.1193167
0.1467316 0.5769252 0.1173807
0.1459358 0.5788661 0.1154289
0.1451157 0.5807811 0.1134616
0.1442706 0.5826697 0.1114794
0.1434001 0.5845314 0.1094828
0.1425035 0.5863657 0.1074724
0.1415804 0.588172 0.1054487
0.14063 0.5899497 0.1034124
0.139652 0.5916985 0.1013642
0.1386457 0.5934178 0.09930466
0.1376106 0.5951071 0.09723464
0.1365461 0.5967658 0.09515487
0.1354516 0.5983936 0.09306616
0.1343268 0.5999899 0.09096935
0.1331709 0.6015543 0.08886535
0.1319835 0.6030863 0.08675507
0.1307642 0.6045854 0.08463947
0.1295123 0.6060513 0.08251956
0.1282274 0.6074836 0.08039639
0.1269091 0.6088818 0.07827104
0.1255568 0.6102456 0.07614463
0.1241702 0.6115746 0.07401832
0.1227489 0.6128686 0.07189332
0.1212924 0.6141271 0.06977086
0.1198004 0.61535 0.06765223
0.1182726 0.616537 0.06553874
0.1167086 0.6176879 0.06343174
0.1151081 0.6188024 0.06133261
0.1134708 0.6198805 0.05924279
0.1117966 0.6209219 0.05716371
0.1100853 0.6219267 0.05509688
0.1083367 0.6228948 0.0530438
0.1065506 0.6238262 0.05100602
0.1047269 0.6247208 0.0489851
0.1028657 0.6255789 0.04698265
0.1009669 0.6264004 0.04500028
0.09903058 0.6271856 0.04303963
0.09705676 0.6279346 0.04110234
0.09504559 0.6286478 0.03919008
0.09299724 0.6293253 0.03730454
0.09091193 0.6299677 0.0354474
0.08878992 0.6305752 0.03362035
0.08663153 0.6311483 0.03182508
0.08443713 0.6316876 0.03006329
0.08220714 0.6321936 0.02833666
0.07994202 0.6326668 0.02664687
0.07764229 0.633108 0.0249956
0.07530853 0.6335179 0.02338447
0.07294137 0.6338971 0.02181514
0.07054149 0.6342467 0.0202892
0.06810961 0.6345673 0.01880823
0.06564652 0.6348599 0.01737378
0.06315305 0.6351256 0.01598735
0.0606301 0.6353652 0.01465042
0.05807859 0.63558 0.01336441
0.05549951 0.6357709 0.01213071
0.0528939 0.6359391 0.01095063
0.05026283 0.6360859 0.009825462
0.04760741 0.6362125 0.008756406
0.04492883 0.6363201 0.007744618
0.04222828 0.6364101 0.006791184
0.039507 0.6364838 0.005897122
0.03676629 0.6365426 0.005063379
0.03400744 0.6365879 0.004290827
0.03123182 0.6366212 0.00358026
0.02844078 0.6366438 0.002932396
0.02563574 0.6366574 0.002347869
0.02281811 0.6366633 0.00182723
0.01998935 0.6366632 0.001370948
0.0171509 0.6366584 0.0009794047
0.01430425 0.6366507 0.0006528936
0.01145087 0.6366414 0.0003916225
0.008592258 0.6366321 0.0001957105
0.005729914 0.6366244 6.518868e-05
0.00286533 0.6366198 0
0 0.6366198 0

LINES 349 1047
2 0 1
2 1 2
2 2 3
2 3 4
2 4 5
2 5 6
2 6 7
2 7 8
2 8 9
2 9 10
2 10 11
2 11 12
2 12 13
2 13 14
2 14 15
2 15 16
2 16 17
2 17 18
2 18 19
2 19 20
2 20 21
2 21 22
2 22 23
2 23 24
2 24 25
2 25 26
2 26 27
2 27 28
2 28 29
2 29 30
2 30 31
2 31 32
2 32 33
2 33 34
2 34 35
2 35 36
2 36 37
2 37 38
2 38 39
2 39 40
2 40 41
2 41 42
2 42 43
2 43 44
2 44 45
2 45 46
2 46 47
2 47 48
2 48 49
2 49 50
2 50 51
2 51 52
2 52 53
2 53 54
2 54 55
2 55 56
2 56 57
2 57 58
2 58 59
2 59 60
2 60 61
2 61 62
2 62 63
2 63 64
2 64 65
2 65 66
2 66 67
2 67 68
2 68 69
2 69 70
2 70 71
2 71 72
2 72 73
2 73 74
2 74 75
2 75 76
2 76 77
2 77 78
2 78 79
2 79 80
2 80 81
2 81 82
2 82 83
2 83 84
2 84 85
2 85 86
2 86 87
2 87 88
2 88 89
2 89 90
2 90 91
2 91 92
2 92 93
2 93 94
2 94 95
2 95 96
2 96 97
2 97 98
2 98 99
2 99 100
2 100 101
2 101 102
2 102 103
2 103 104
2 104 105
2 105 106
2 106 107
2 107 108
2 108 109
2 109 110
2 110 111
2 111 112
2 112 113
2 113 114
2 114 115
2 115 116
2 116 117
2 117 118
2 118 119
2 119 120
2 120 121
2 121 122
2 122 123
2 123 124
2 124 125
2 125 126
2 126 127
2 127 128
2 128 129
2 129 130
2 130 131
2 131 132
2 132 133
2 133 134
2 134 135
2 135 136
2 136 137
2 137 138
2 138 139
2 139 140
2 140 141
2 141 142
2 142 143
2 143 144
2 144 145
2 145 146
2 146 147
2 147 148
2 148 149
2 149 150
2 150 151
2 151 152
2 152 153
2 153 154
2 154 155
2 155 156
2 156 157
2 157 158
2 158 159
2 159 160
2 160 161
2 161 162
2 162 163
2 163 164
2 164 165
2 165 166
2 166 167
2 167 168
2 168 169
2 169 170
2 170 171
2 171 172
2 172 173
2 173 174
2 174 175
2 175 176
2 176 177
2 177 178
2 178 179
2 179 180
2 180 181
2 181 182
2 182 183
2 183 184
2 184 185
2 185 186
2 186 187
2 187 188
2 188 189
2 189 190
2 190 191
2 191 192
2 192 193
2 193 194
2 194 195
2 195 196
2 196 197
2 197 198
2 198 199
2 199 200
2 200 201
2 201 202
2 202 203
2 203 204
2 204 205
2 205 206
2 206 207
2 207 208
2 208 209
2 209 210
2 210 211
2 211 212
2 212 213
2 213 214
2 214 215
2 215 216
2 216 217
2 217 218
2 218 219
2 219 220
2 220 221
2 221 222
2 222 223
2 223 224
2 224 225
2 225 226
2 226 227
2 227 228
2 228 229
2 229 230
2 230 231
2 231 232
2 232 233
2 233 234
2 234 235
2 235 236
2 236 237
2 237 238
2 238 239
2 239 240
2 240 241
2 241 242
2 242 243
2 243 244
2 244 245
2 245 246
2 246 247
2 247 248
2 248 249
2 249 250
2 250 251
2 251 252
2 252 253
2 253 254
2 254 255
2 255 256
2 256 257
2 257 258
2 258 259
2 259 260
2 260 261
2 261 262
2 262 263
2 263 264
2 264 265
2 265 266
2 266 267
2 267 268
2 268 269
2 269 270
2 270 271
2 271 272
2 272 273
2 273 274
2 274 275
2 275 276
2 276 277
2 277 278
2 278 279
2 279 280
2 280 281
2 281 282
2 282 283
2 283 284
2 284 285
2 285 286
2 286 287
2 287 288
2 288 289
2 289 290
2 290 291
2 291 292
2 292 293
2 293 294
2 294 295
2 295 296
2 296 297
2 297 298
2 298 299
2 299 300
2 300 301
2 301 302
2 302 303
2 303 304
2 304 305
2 305 306
2 306 307
2 307 308
2 308 309
2 309 310
2 310 311
2 311 312
2 312 313
2 313 314
2 314 315
2 315 316
2 316 317
2 317 318
2 318 319
2 319 320
2 320 321
2 321 322
2 322 323
2 323 324
2 324 325
2 325 326
2 326 327
2 327 328
2 328 329
2 329 330
2 330 331
2 331 332
2 332 333
2 333 334
2 334 335
2 335 336
2 336 337
2 337 338
2 338 339
2 339 340
2 340 341
2 341 342
2 342 343
2 343 344
2 344 345
2 345 346
2 346 347
2 347 348
2 348 349


POINT_DATA 350
SCALARS a FLOAT 1
LOOKUP_TABLE default
0.0005894628
0.0005894628
0.0005894628
0.0005894628
0.0005894628
0.0005894628
0.0005894628
0.0005894628
0.0005894628
0.0005894628
0.0005894628
0.0005894628
0.0005894628
0.0005894628
0.0005894628
0.0005894628
0.0005894628
0.0005894628
0.0005894628
0.0005894628
0.0005894628
0.0005894628
0.0005894628
0.0005894628
0.0005894628
0.0005894628
0.0005894628
0.0005894628
0.0005894628
0.0005894628
0.0005894628
0.0005894628
0.0005894628
0.0005894628
0.0005894628
0.0005894628
0.0005894628
0.0005894628
0.0005894628
0.0005894628
0.0005894628
0.0005894628
0.0005894628
0.0005894628
0.0005894628
0.0005894628
0.0005894628
0.0005894628
0.0005894628
0.0005894628
0.0005894628
0.0005894628
0.0005894628
0.0005894628
0.0005894628
0.0005894628
0.0005894628
0.0005894628
0.0005894628
0.0005894628
0.0005894628
0.0005894628
0.0005894628
0.0005894628
0.0005894628
0.0005894628
0.0005894628
0.0005894628
0.0005894628
0.0005894628
0.0005894628
0.0005894628
0.0005894628
0.0005894628
0.0005894628
0.0005894628
0.0005894628
0.0005894628
0.0005894628
0.0005894628
0.0005894628
0.0005894628
0.0005894628
0.0005894628
0.0005894628
0.0005894628
0.0005894628
0.0005894628
0.0005894628
0.0005894628
0.0005894628
0.0005894628
0.0005894628
0.0005894628
0.0005894628
0.0005894628
0.0005894628
0.0005894628
0.0005894628
0.0005894628
0.0005894628
0.0005894628
0.0005894628
0.0005894628
0.0005894628
0.0005894628
0.0005894628
0.0005894628
0.0005894628
0.0005894628
0.0005894628
0.0005894628
0.0005894628
0.0005894628
0.0005894628
0.0005894628
0.0005894628
0.0005894628
0.0005894628
0.0005894628
0.0005894628
0.0005894628
0.0005894628
0.0005894628
0.0005894628
0.0005894628
0.0005894628
0.0005894628
0.0005894628
0.0005894628
0.0005894628
0.0005894628
0.0005894628
0.0005894628
0.0005894628
0.0005894628
0.0005894628
0.0005894628
0.0005894628
0.0005894628
0.0005894628
0.0005894628
0.0005894628
0.0005894628
0.0005894628
0.0005894628
0.0005894628
0.0005894628
0.0005894628
0.0005894628
0.0005894628
0.0005894628
0.0005894628
0.0005894628
0.0005894628
0.0005894628
0.0005894628
0.0005894628
0.0005894628
0.0005894628
0.0005894628
0.0005894628
0.0005894628
0.0005894628
0.0005894628
0.0005894628
0.0005894628
0.0005894628
0.0005894628
0.0005894628
0.0005894628
0.0005894628
0.0005894628
0.0005894628
0.0005894628
0.0005894628
0.0005894628
0.0005894628
0.0005894628
0.0005894628
0.0005894628
0.0005894628
0.0005894628
0.0005894628
0.0005894628
0.0005894628
0.0005894628
0.0005894628
0.0005894628
0.0005894628
0.0005894628
0.0005894628
0.0005894628
0.0005894628
0.0005894628
0.0005894628
0.0005894628
0.0005894628
0.0005894628
0.0005894628
0.0005894628
0.0005894628
0.0005894628
0.0005894628
0.0005894628
0.0005894628
0.0005894628
0.0005894628
0.0005894628
0.0005894628
0.0005894628
0.0005894628
0.0005894628
0.0005894628
0.0005894628
0.0005894628
0.0005894628
0.0005894628
0.0005894628
0.0005894628
0.0005894628
0.0005894628
0.0005894628
0.0005894628
0.0005894628
0.0005894628
0.0005894628
0.0005894628
0.0005894628
0.0005894628
0.0005894628
0.0005894628
0.0005894628
0.0005894628
0.0005894628
0.0005894628
0.0005894628
0.0005894628
0.0005894628
0.0005894628
0.0005894628
0.0005894628
0.0005894628
0.0005894628
0.0005894628
0.0005894628
0.0005894628
0.0005894628
0.0005894628
0.0005894628
0.0005894628
0.0005894628
0.0005894628
0.0005894628
0.0005894628
0.0005894628
0.0005894628
0.0005894628
0.0005894628
0.0005894628
0.0005894628
0.0005894628
0.0005894628
0.0005894628
0.0005894628
0.0005894628
0.0005894628
0.0005894628
0.0005894628
0.0005894628
0.0005894628
0.0005894628
0.0005894628
0.0005894628
0.0005894628
0.0005894628
0.0005894628
0.0005894628
0.0005894628
0.0005894628
0.0005894628
0.0005894628
0.0005894628
0.0005894628
0.0005894628
0.0005894628
0.0005894628
0.0005894628
0.0005894628
0.0005894628
0.0005894628
0.0005894628
0.0005894628
0.0005894628
0.0005894628
0.0005894628
0.0005894628
0.0005894628
0.0005894628
0.0005894628
0.0005894628
0.0005894628
0.0005894628
0.0005894628
0.0005894628
0.0005894628
0.0005894628
0.0005894628
0.0005894628
0.0005894628
0.0005894628
0.0005894628
0.0005894628
0.0005894628
0.0005894628
0.0005894628
0.0005894628
0.0005894628
0.0005894628
0.0005894628
0.0005894628
0.0005894628
0.0005894628
0.0005894628
0.0005894628
0.0005894628
0.0005894628
0.0005894628
0.0005894628
0.0005894628
0.0005894628
0.0005894628
0.0005894628
0.0005894628
0.0005894628
0.0005894628
0.0005894628
0.0005894628
0.0005894628
0.0005894628
0.0005894628
0.0005894628
0.0005894628
0.0005894628
0.0005894628
0.0005894628
0.0005894628
0.0005894628
0.0005894628
0.0005894628


SCALARS b FLOAT 1
LOOKUP_TABLE default
0.04420971
0.04420971
0.04420971
0.04420971
0.04420971
0.04420971
0.04420971
0.04420971
0.04420971
0.04420971
0.04420971
0.04420971
0.04420971
0.04420971
0.04420971
0.04420971
0.04420971
0.04420971
0.04420971
0.04420971
0.04420971
0.04420971
0.04420971
0.04420971
0.04420971
0.04420971
0.04420971
0.04420971
0.04420971
0.04420971
0.04420971
0.04420971
0.04420971
0.04420971
0.04420971
0.04420971
0.04420971
0.04420971
0.04420971
0.04420971
0.04420971
0.04420971
0.04420971
0.04420971
0.04420971
0.04420971
0.04420971
0.04420971
0.04420971
0.04420971
0.04420971
0.04420971
0.04420971
0.04420971
0.04420971
0.04420971
0.04420971
0.04420971
0.04420971
0.04420971
0.04420971
0.04420971
0.04420971
0.04420971
0.04420971
0.04420971
0.04420971
0.04420971
0.04420971
0.04420971
0.04420971
0.04420971
0.04420971
0.04420971
0.04420971
0.04420971
0.04420971
0.04420971
0.04420971
0.04420971
0.04420971
0.04420971
0.04420971
0.04420971
0.04420971
0.04420971
0.04420971
0.04420971
0.04420971
0.04420971
0.04420971
0.04420971
0.04420971
0.04420971
0.04420971
0.04420971
0.04420971
0.04420971
0.04420971
0.04420971
0.04420971
0.04420971
0.04420971
0.04420971
0.04420971
0.04420971
0.04420971
0.04420971
0.04420971
0.04420971
0.04420971
0.04420971
0.04420971
0.04420971
0.04420971
0.04420971
0.04420971
0.04420971
0.04420971
0.04420971
0.04420971
0.04420971
0.04420971
0.04420971
0.04420971
0.04420971
0.04420971
0.04420971
0.04420971
0.04420971
0.04420971
0.04420971
0.04420971
0.04420971
0.04420971
0.04420971
0.04420971
0.04420971
0.04420971
0.04420971
0.04420971
0.04420971
0.04420971
0.04420971
0.04420971
0.04420971
0.04420971
0.04420971
0.04420971
0.04420971
0.04420971
0.04420971
0.04420971
0.04420971
0.04420971
0.04420971
0.04420971
0.04420971
0.04420971
0.04420971
0.04420971
0.04420971
0.04420971
0.04420971
0.04420971
0.04420971
0.04420971
0.04420971
0.04420971
0.04420971
0.04420971
0.04420971
0.04420971
0.04420971
0.04420971
0.04420971
0.04420971
0.04420971
0.04420971
0.04420971
0.04420971
0.04420971
0.04420971
0.04420971
0.04420971
0.04420971
0.04420971
0.04420971
0.04420971
0.04420971
0.04420971
0.04420971
0.04420971
0.04420971
0.04420971
0.04420971
0.04420971
0.04420971
0.04420971
0.04420971
0.04420971
0.04420971
0.04420971
0.04420971
0.04420971
0.04420971
0.04420971
0.04420971
0.04420971
0.04420971
0.04420971
0.04420971
0.04420971
0.04420971
0.04420971
0.04420971
0.04420971
0.04420971
0.04420971
0.04420971
0.04420971
0.04420971
0.04420971
0.04420971
0.04420971
0.04420971
0.04420971
0.04420971
0.04420971
0.04420971
0.04420971
0.04420971
0.04420971
0.04420971
0.04420971
0.04420971
0.04420971
0.04420971
0.04420971
0.04420971
0.04420971
0.04420971
0.04420971
0.04420971
0.04420971
0.04420971
0.04420971
0.04420971
0.04420971
0.04420971
0.04420971
0.04420971
0.04420971
0.04420971
0.04420971
0.04420971
0.04420971
0.04420971
0.04420971
0.04420971
0.04420971
0.04420971
0.04420971
0.04420971
0.04420971
0.04420971
0.04420971
0.04420971
0.04420971
0.04420971
0.04420971
0.04420971
0.04420971
0.04420971
0.04420971
0.04420971
0.04420971
0.04420971
0.04420971
0.04420971
0.04420971
0.04420971
0.04420971
0.04420971
0.04420971
0.04420971
0.04420971
0.04420971
0.04420971
0.04420971
0.04420971
0.04420971
0.04420971
0.04420971
0.04420971
0.04420971
0.04420971
0.04420971
0.04420971
0.04420971
0.04420971
0.04420971
0.04420971
0.04420971
0.04420971
0.04420971
0.04420971
0.04420971
0.04420971
0.04420971
0.04420971
0.04420971
0.04420971
0.04420971
0.04420971
0.04420971
0.04420971
0.04420971
0.04420971
0.04420971
0.04420971
0.04420971
0.04420971
0.04420971
0.04420971
0.04420971
0.04420971
0.04420971
0.04420971
0.04420971
0.04420971
0.04420971
0.04420971
0.04420971
0.04420971
0.04420971
0.04420971
0.04420971
0.04420971
0.04420971
0.04420971
0.04420971
0.04420971
0.04420971
0.04420971
0.04420971
0.04420971
0.04420971
0.04420971
0.04420971


VECTORS d1 FLOAT
0 -0.08221682 0.9966145
-0.02280619 -0.05893023 0.9980016
-0.04561902 -0.03556478 0.9983256
-0.06840781 -0.01215136 0.9975834
-0.09114185 0.01127893 0.995774
-0.1137905 0.03469491 0.9928988
-0.1363233 0.05806537 0.9889613
-0.1587099 0.08135921 0.9839674
-0.1809205 0.1045455 0.9779253
-0.2029257 0.1275938 0.9708455
-0.2246966 0.1504737 0.9627404
-0.2462049 0.1731557 0.9536248
-0.2674231 0.1956106 0.9435154
-0.2883246 0.2178101 0.9324311
-0.3088834 0.2397264 0.9203925
-0.3290748 0.2613329 0.9074221
-0.3488749 0.2826036 0.8935444
-0.368261 0.3035137 0.8787851
-0.3872116 0.3240394 0.8631718
-0.4057063 0.3441582 0.8467334
-0.423726 0.3638485 0.8295002
-0.4412529 0.38309 0.8115035
-0.4582706 0.4018639 0.7927758
-0.4747638 0.4201525 0.7733506
-0.490719 0.4379395 0.7532622
-0.5061236 0.4552099 0.7325455
-0.5209667 0.4719502 0.7112361
-0.5352387 0.4881481 0.6893699
-0.5489315 0.503793 0.6669834
-0.5620382 0.5188753 0.6441129
-0.5745533 0.533387 0.6207953
-0.5864727 0.5473215 0.597067
-0.5977935 0.5606733 0.5729645
-0.6085142 0.5734385 0.5485241
-0.6186345 0.5856143 0.5237816
-0.6281553 0.5971993 0.4987725
-0.6370785 0.608193 0.4735317
-0.6454073 0.6185964 0.4480936
-0.6531459 0.6284116 0.4224918
-0.6602996 0.6376415 0.396759
-0.6668745 0.6462904 0.3709275
-0.6728775 0.6543632 0.3450284
-0.6783168 0.6618661 0.3190918
-0.6832009 0.668806 0.293147
-0.6875392 0.6751904 0.2672222
-0.6913419 0.681028 0.2413447
-0.6946197 0.6863278 0.2155403
-0.6973839 0.6910997 0.1898342
-0.6996461 0.695354 0.16425
-0.7014188 0.6991018 0.1388105
-0.7027144 0.7023545 0.1135372
-0.703546 0.7051238 0.08845033
-0.7039268 0.7074221 0.06356924
-0.7038703 0.7092619 0.03891192
-0.7033903 0.710656 0.01449529
-0.7025006 0.7116176 -0.009664883
-0.7012151 0.7121598 -0.03355392
-0.6995479 0.7122961 -0.05715826
-0.6975131 0.7120399 -0.08046538
-0.6951246 0.7114049 -0.1034638
-0.6923966 0.7104047 -0.1261432
-0.689343 0.7090527 -0.148494
-0.6859776 0.7073626 -0.1705077
-0.682314 0.7053478 -0.1921769
-0.678366 0.7030217 -0.2134948
-0.6741467 0.7003976 -0.2344557
-0.6696694 0.6974884 -0.2550546
-0.664947 0.6943071 -0.2752874
-0.6599923 0.6908664 -0.2951506
-0.6548176 0.6871788 -0.3146416
-0.6494351 0.6832565 -0.3337584
-0.6438567 0.6791116 -0.3524996
-0.638094 0.6747558 -0.3708647
-0.6321584 0.6702006 -0.3888533
-0.6260607 0.6654572 -0.4064661
-0.6198117 0.6605364 -0.4237039
-0.6134218 0.655449 -0.4405682
-0.6069009 0.6502051 -0.4570609
-0.6002588 0.6448147 -0.4731843
-0.5935048 0.6392875 -0.4889412
-0.586648 0.6336329 -0.5043347
-0.5796972 0.6278598 -0.5193681
-0.5726607 0.621977 -0.5340453
-0.5655466 0.6159929 -0.5483702
-0.5583627 0.6099154 -0.5623471
-0.5511164 0.6037524 -0.5759807
-0.5438149 0.5975113 -0.5892755
-0.536465 0.5911991 -0.6022366
-0.5290732 0.5848226 -0.6148691
-0.5216459 0.5783884 -0.6271782
-0.5141888 0.5719026 -0.6391692
-0.5067078 0.565371 -0.6508478
-0.4992082 0.5587992 -0.6622195
-0.4916951 0.5521926 -0.6732899
-0.4841734 0.545556 -0.6840649
-0.4766477 0.5388943 -0.6945501
-0.4691225 0.5322118 -0.7047516
-0.4616017 0.5255126 -0.714675
-0.4540894 0.5188007 -0.7243263
-0.4465892 0.5120797 -0.7337114
-0.4391046 0.505353 -0.7428361
-0.4316388 0.4986237 -0.7517063
-0.424195 0.4918946 -0.7603278
-0.4167759 0.4851684 -0.7687064
-0.4093843 0.4784474 -0.7768478
-0.4020228 0.4717339 -0.7847578
-0.3946936 0.4650298 -0.7924419
-0.387399 0.4583368 -0.7999058
-0.3801411 0.4516565 -0.807155
-0.3729217 0.44499 -0.8141949
-0.3657426 0.4383387 -0.8210308
-0.3586055 0.4317033 -0.827668
-0.3515119 0.4250845 -0.8341118
-0.3444633 0.418483 -0.8403672
-0.337461 0.4118991 -0.8464392
-0.3305061 0.4053329 -0.8523326
-0.3236 0.3987845 -0.8580524
-0.3167436 0.3922537 -0.8636032
-0.309938 0.3857402 -0.8689896
-0.303184 0.3792436 -0.8742161
-0.2964827 0.3727632 -0.879287
-0.2898348 0.3662984 -0.8842066
-0.2832412 0.3598482 -0.888979
-0.2767025 0.3534116 -0.8936084
-0.2702197 0.3469875 -0.8980985
-0.2637935 0.3405747 -0.9024533
-0.2574245 0.3341718 -0.9066763
-0.2511135 0.3277773 -0.9107711
-0.2448613 0.3213898 -0.9147413
-0.2386687 0.3150074 -0.91859
-0.2325364 0.3086285 -0.9223206
-0.2264653 0.3022513 -0.9259361
-0.2204563 0.2958739 -0.9294394
-0.2145104 0.2894942 -0.9328335
-0.2086284 0.2831103 -0.9361211
-0.2028115 0.27672 -0.9393048
-0.1970608 0.2703213 -0.9423871
-0.1913777 0.2639118 -0.9453704
-0.1857633 0.2574893 -0.948257
-0.1802192 0.2510515 -0.951049
-0.174747 0.2445961 -0.9537485
-0.1693484 0.2381207 -0.9563575
-0.1640252 0.231623 -0.9588778
-0.1587795 0.2251004 -0.961311
-0.1536134 0.2185505 -0.963659
-0.1485295 0.211971 -0.965923
-0.1435302 0.2053592 -0.9681047
-0.1386184 0.1987129 -0.9702052
-0.1337972 0.1920294 -0.9722258
-0.12907 0.1853063 -0.9741676
-0.1244403 0.1785412 -0.9760316
-0.1199121 0.1717318 -0.9778186
-0.1154898 0.1648755 -0.9795296
-0.111178 0.1579703 -0.981165
-0.1069817 0.1510137 -0.9827257
-0.1029064 0.1440037 -0.984212
-0.09895812 0.1369383 -0.9856243
-0.09514319 0.1298157 -0.9869628
-0.09146861 0.1226341 -0.9882279
-0.08794185 0.1153921 -0.9894195
-0.08457098 0.1080886 -0.9905375
-0.08136465 0.1007227 -0.9915819
-0.07833209 0.09329402 -0.9925524
-0.07548311 0.08580258 -0.9934486
-0.07282803 0.07824899 -0.9942702
-0.07037767 0.07063451 -0.9950165
-0.06814317 0.06296115 -0.9956869
-0.06613589 0.05523176 -0.9962808
-0.06436713 0.04745012 -0.9967976
-0.0628479 0.03962102 -0.9972363
-0.06158851 0.03175024 -0.9975965
-0.06059826 0.02384463 -0.9978774
-0.05988494 0.01591192 -0.9980785
-0.05945447 0.007960672 -0.9981993
-0.05931057 1.254238e-09 -0.9982396
-0.05945447 -0.00796067 -0.9981993
-0.05988494 -0.01591192 -0.9980785
-0.06059826 -0.02384462 -0.9978774
-0.06158851 -0.03175024 -0.9975965
-0.0628479 -0.03962101 -0.9972363
-0.06436713 -0.04745012 -0.9967976
-0.06613589 -0.05523176 -0.9962808
-0.06814317 -0.06296115 -0.9956869
-0.07037767 -0.0706345 -0.9950165
-0.07282803 -0.07824898 -0.9942702
-0.07548311 -0.08580257 -0.9934486
-0.07833209 -0.09329402 -0.9925524
-0.08136465 -0.1007227 -0.9915819
-0.08457098 -0.1080886 -0.9905375
-0.08794185 -0.1153921 -0.9894195
-0.09146861 -0.1226341 -0.9882279
-0.09514319 -0.1298157 -0.9869628
-0.09895812 -0.1369383 -0.9856243
-0.1029064 -0.1440037 -0.984212
-0.1069817 -0.1510137 -0.9827257
-0.111178 -0.1579703 -0.981165
-0.1154898 -0.1648755 -0.9795296
-0.1199121 -0.1717318 -0.9778186
-0.1244403 -0.1785412 -0.9760316
-0.1290699 -0.1853063 -0.9741676
-0.1337972 -0.1920294 -0.9722258
-0.1386184 -0.1987129 -0.9702052
-0.1435302 -0.2053592 -0.9681047
-0.1485295 -0.211971 -0.965923
-0.1536134 -0.2185505 -0.963659
-0.1587795 -0.2251004 -0.961311
-0.1640252 -0.231623 -0.9588778
-0.1693484 -0.2381207 -0.9563575
-0.174747 -0.2445961 -0.9537485
-0.1802192 -0.2510515 -0.951049
-0.1857633 -0.2574893 -0.948257
-0.1913777 -0.2639118 -0.9453704
-0.1970608 -0.2703213 -0.9423871
-0.2028115 -0.27672 -0.9393048
-0.2086284 -0.2831103 -0.9361211
-0.2145104 -0.2894942 -0.9328335
-0.2204563 -0.2958739 -0.9294394
-0.2264653 -0.3022513 -0.9259361
-0.2325364 -0.3086285 -0.9223206
-0.2386687 -0.3150074 -0.91859
-0.2448613 -0.3213898 -0.9147413
-0.2511135 -0.3277773 -0.9107711
-0.2574245 -0.3341718 -0.9066763
-0.2637935 -0.3405747 -0.9024533
-0.2702197 -0.3469875 -0.8980985
-0.2767025 -0.3534116 -0.8936084
-0.2832412 -0.3598482 -0.888979
-0.2898348 -0.3662984 -0.8842066
-0.2964827 -0.3727632 -0.879287