# vtk DataFile Version 2.0
Written badly by Kevin Korner
ASCII
DATASET POLYDATA
POINTS 350 FLOAT
0 0 0
0.00286533 0 0
0.005727984 -9.218898e-05 8.260692e-05
0.008582413 -0.0002752426 0.0002524213
0.01142279 -0.0005473455 0.000513882
0.01424301 -0.0009061705 0.0008712185
0.01703677 -0.001348861 0.001328401
0.01979758 -0.001872022 0.001889089
0.02251878 -0.002471711 0.002556583
0.02519364 -0.00314344 0.003333774
0.02781537 -0.003882187 0.004223094
0.0303772 -0.004682407 0.005226476
0.03287244 -0.005538055 0.006345309
0.03529451 -0.006442622 0.007580403
0.03763704 -0.007389169 0.008931964
0.03989391 -0.008370373 0.01039956
0.04205935 -0.009378582 0.01198213
0.04412792 -0.01040587 0.01367795
0.04609466 -0.01144412 0.01548463
0.04795506 -0.01248505 0.01739917
0.04970518 -0.01352032 0.01941794
0.05134162 -0.01454162 0.02153669
0.0528616 -0.01554068 0.02375066
0.05426296 -0.01650941 0.02605454
0.05554418 -0.01743993 0.02844258
0.05670439 -0.01832464 0.03090861
0.05774335 -0.01915631 0.03344613
0.05866149 -0.0199281 0.03604834
0.05945981 -0.02063361 0.03870824
0.06013992 -0.02126695 0.04141867
0.06070399 -0.02182275 0.0441724
0.06115468 -0.02229621 0.04696217
0.06149516 -0.02268306 0.04978077
0.06172898 -0.02297964 0.0526211
0.06186009 -0.02318286 0.05547621
0.06189277 -0.0232902 0.05833934
0.06183155 -0.0232997 0.061204
0.06168119 -0.02320994 0.06406397
0.06144661 -0.02302003 0.06691336
0.06113285 -0.02272956 0.06974661
0.06074503 -0.02233858 0.07255852
0.06028829 -0.0218476 0.07534428
0.05976776 -0.02125746 0.07809944
0.05918852 -0.02056942 0.08081995
0.05855559 -0.01978502 0.08350216
0.05787384 -0.01890609 0.08614276
0.05714803 -0.0179347 0.08873886
0.05638278 -0.01687316 0.09128791
0.05558251 -0.01572392 0.09378769
0.05475146 -0.01448959 0.09623635
0.05389368 -0.01317291 0.09863232
0.05301302 -0.01177669 0.1009743
0.05211309 -0.0103038 0.1032615
0.05119732 -0.008757166 0.1054929
0.05026893 -0.007139723 0.1076682
0.04933089 -0.005454405 0.1097872
0.04838599 -0.003704131 0.1118497
0.04743682 -0.001891787 0.1138558
0.04648577 -2.021581e-05 0.1158059
0.04553502 0.001907794 0.1177003
0.04458657 0.00388952 0.1195397
0.04364227 0.005922309 0.1213247
0.04270378 0.008003585 0.1230561
0.04177259 0.01013086 0.1247347
0.04085006 0.01230172 0.1263615
0.0399374 0.01451385 0.1279374
0.03903569 0.01676502 0.1294636
0.03814587 0.01905309 0.1309411
0.03726879 0.02137603 0.1323711
0.03640515 0.02373186 0.1337547
0.0355556 0.02611872 0.1350931
0.03472065 0.02853484 0.1363874
0.03390076 0.03097852 0.137639
0.03309628 0.03344814 0.1388489
0.03230751 0.03594219 0.1400183
0.03153467 0.03845922 0.1411486
0.03077792 0.04099784 0.1422407
0.03003737 0.04355677 0.143296
0.02931308 0.04613478 0.1443155
0.02860506 0.04873069 0.1453004
0.02791328 0.05134343 0.1462518
0.02723767 0.05397195 0.1471708
0.02657813 0.05661528 0.1480584
0.02593453 0.05927251 0.1489158
0.02530671 0.06194276 0.1497439
0.02469448 0.06462523 0.1505437
0.02409766 0.06731915 0.1513161
0.02351602 0.0700238 0.1520622
0.02294932 0.0727385 0.1527829
0.02239732 0.07546263 0.153479
0.02185976 0.07819558 0.1541514
0.02133636 0.0809368 0.1548009
0.02082686 0.08368575 0.1554284
0.02033096 0.08644196 0.1560347
0.01984839 0.08920495 0.1566204
0.01937884 0.09197429 0.1571864
0.01892203 0.09474959 0.1577334
0.01847766 0.09753045 0.158262
0.01804543 0.1003165 0.158773
0.01762506 0.1031075 0.1592669
0.01721624 0.105903 0.1597444
0.01681869 0.1087028 0.1602061
0.01643211 0.1115066 0.1606525
0.01605623 0.1143142 0.1610842
0.01569076 0.1171253 0.1615018
0.01533543 0.1199396 0.1619058
0.01498996 0.1227571 0.1622966
0.01465409 0.1255774 0.1626748
0.01432756 0.1284005 0.1630408
0.01401011 0.1312261 0.163395
0.01370149 0.134054 0.1637378
0.01340146 0.1368842 0.1640697
0.01310979 0.1397165 0.1643911
0.01282625 0.1425507 0.1647023
0.0125506 0.1453868 0.1650036
0.01228265 0.1482246 0.1652955
0.01202217 0.151064 0.1655782
0.01176896 0.1539049 0.1658521
0.01152284 0.1567473 0.1661174
0.01128361 0.1595911 0.1663745
0.01105109 0.1624361 0.1666236
0.0108251 0.1652822 0.1668649
0.01060549 0.1681296 0.1670988
0.01039207 0.1709779 0.1673254
0.01018471 0.1738273 0.1675449
0.00998325 0.1766776 0.1677577
0.009787546 0.1795288 0.1679639
0.009597464 0.1823808 0.1681636
0.009412871 0.1852337 0.1683571
0.009233644 0.1880872 0.1685445
0.009059661 0.1909415 0.1687261
0.008890808 0.1937964 0.1689019
0.008726977 0.196652 0.1690721
0.008568063 0.1995082 0.1692369
0.008413967 0.2023649 0.1693964
0.008264594 0.2052222 0.1695507
0.008119855 0.20808 0.1696999
0.007979663 0.2109382 0.1698442
0.007843939 0.2137969 0.1699837
0.007712604 0.2166561 0.1701184
0.007585586 0.2195156 0.1702485
0.007462815 0.2223756 0.1703741
0.007344226 0.2252359 0.1704952
0.007229756 0.2280966 0.1706119
0.007119348 0.2309575 0.1707244
0.007012946 0.2338189 0.1708326
0.006910498 0.2366805 0.1709366
0.006811955 0.2395423 0.1710366
0.00671727 0.2424045 0.1711326
0.006626401 0.2452669 0.1712246
0.006539307 0.2481296 0.1713127
0.006455949 0.2509924 0.1713969
0.006376293 0.2538555 0.1714773
0.006300305 0.2567188 0.1715539
0.006227954 0.2595823 0.1716268
0.006159212 0.262446 0.171696
0.006094052 0.2653098 0.1717615
0.006032449 0.2681738 0.1718235
0.005974381 0.271038 0.1718818
0.005919826 0.2739023 0.1719365
0.005868766 0.2767667 0.1719878
0.005821182 0.2796312 0.1720355
0.00577706 0.2824959 0.1720797
0.005736383 0.2853606 0.1721204
0.005699139 0.2882255 0.1721577
0.005665317 0.2910904 0.1721915
0.005634906 0.2939554 0.172222
0.005607896 0.2968205 0.172249
0.00558428 0.2996856 0.1722726
0.00556405 0.3025508 0.1722928
0.0055472 0.305416 0.1723096
0.005533726 0.3082813 0.1723231
0.005523624 0.3111466 0.1723332
0.005516891 0.3140119 0.1723399
0.005513525 0.3168772 0.1723433
0.005513525 0.3197426 0.1723433
0.005516891 0.3226079 0.1723399
0.005523624 0.3254732 0.1723332
0.005533726 0.3283385 0.1723231
0.0055472 0.3312038 0.1723096
0.00556405 0.334069 0.1722928
0.00558428 0.3369342 0.1722726
0.005607896 0.3397993 0.172249
0.005634906 0.3426644 0.172222
0.005665317 0.3455294 0.1721915
0.00569914 0.3483943 0.1721577
0.005736383 0.3512592 0.1721204
0.00577706 0.3541239 0.1720797
0.005821182 0.3569886 0.1720355
0.005868766 0.3598531 0.1719878
0.005919826 0.3627175 0.1719365
0.005974381 0.3655818 0.1718818
0.006032449 0.3684459 0.1718235
0.006094052 0.3713099 0.1717615
0.006159212 0.3741738 0.171696
0.006227955 0.3770375 0.1716268
0.006300305 0.3799009 0.1715539
0.006376293 0.3827642 0.1714773
0.00645595 0.3856273 0.1713969
0.006539307 0.3884902 0.1713127
0.006626401 0.3913529 0.1712246
0.00671727 0.3942153 0.1711326
0.006811955 0.3970774 0.1710366
0.006910498 0.3999393 0.1709366
0.007012946 0.4028009 0.1708326
0.007119349 0.4056622 0.1707244
0.007229757 0.4085232 0.1706119
0.007344226 0.4113839 0.1704952
0.007462815 0.4142442 0.1703741
0.007585586 0.4171041 0.1702485
0.007712604 0.4199637 0.1701184
0.007843939 0.4228228 0.1699837
0.007979664 0.4256815 0.1698442
0.008119855 0.4285398 0.1696999
0.008264594 0.4313976 0.1695507
0.008413967 0.4342549 0.1693964
0.008568063 0.4371116 0.1692369
0.008726977 0.4399678 0.1690721
0.008890809 0.4428233 0.1689019
0.009059661 0.4456783 0.1687261
0.009233644 0.4485325 0.1685445
0.009412872 0.4513861 0.1683571
0.009597464 0.4542389 0.1681636
0.009787547 0.457091 0.1679639
0.00998325 0.4599422 0.1677577
0.01018471 0.4627925 0.1675449
0.01039207 0.4656418 0.1673254
0.01060549 0.4684902 0.1670988
0.0108251 0.4713375 0.1668649
0.01105109 0.4741837 0.1666236
0.01128361 0.4770287 0.1663745
0.01152284 0.4798724 0.1661174
0.01176896 0.4827148 0.1658521
0.01202217 0.4855558 0.1655782
0.01228265 0.4883952 0.1652955
0.0125506 0.491233 0.1650036
0.01282625 0.4940691 0.1647023
0.01310979 0.4969033 0.1643911
0.01340147 0.4997356 0.1640697
0.01370149 0.5025658 0.1637378
0.01401011 0.5053937 0.163395
0.01432756 0.5082193 0.1630408
0.01465409 0.5110423 0.1626748
0.01498996 0.5138627 0.1622966
0.01533543 0.5166801 0.1619058
0.01569076 0.5194945 0.1615018
0.01605623 0.5223056 0.1610842
0.01643211 0.5251131 0.1606525
0.01681869 0.5279169 0.160206
0.01721624 0.5307168 0.1597444
0.01762506 0.5335123 0.1592669
0.01804543 0.5363032 0.158773
0.01847766 0.5390893 0.158262
0.01892203 0.5418702 0.1577334
0.01937884 0.5446455 0.1571864
0.01984839 0.5474148 0.1566204
0.02033096 0.5501778 0.1560347
0.02082686 0.552934 0.1554284
0.02133636 0.555683 0.1548009
0.02185976 0.5584242 0.1541514
0.02239732 0.5611571 0.153479
0.02294932 0.5638813 0.1527829
0.02351602 0.566596 0.1520622
0.02409766 0.5693006 0.1513161
0.02469448 0.5719945 0.1505437
0.02530671 0.574677 0.1497439
0.02593453 0.5773473 0.1489158
0.02657813 0.5800045 0.1480584
0.02723767 0.5826478 0.1471708
0.02791328 0.5852763 0.1462518
0.02860506 0.5878891 0.1453004
0.02931308 0.590485 0.1443155
0.03003737 0.593063 0.143296
0.03077792 0.5956219 0.1422407
0.03153467 0.5981606 0.1411486
0.03230751 0.6006776 0.1400183
0.03309628 0.6031716 0.1388489
0.03390076 0.6056413 0.1376389
0.03472065 0.6080849 0.1363874
0.0355556 0.610501 0.1350931
0.03640515 0.6128879 0.1337547
0.03726879 0.6152437 0.1323711
0.03814587 0.6175667 0.1309411
0.03903569 0.6198548 0.1294636
0.0399374 0.6221059 0.1279374
0.04085006 0.6243181 0.1263615
0.04177259 0.6264889 0.1247347
0.04270378 0.6286162 0.1230561
0.04364227 0.6306975 0.1213247
0.04458657 0.6327303 0.1195397
0.04553502 0.634712 0.1177003
0.04648577 0.63664 0.1158059
0.04743682 0.6385116 0.1138558
0.04838599 0.6403239 0.1118497
0.04933089 0.6420742 0.1097872
0.05026893 0.6437595 0.1076682
0.05119732 0.6453769 0.1054929
0.05211309 0.6469236 0.1032615
0.05301302 0.6483965 0.1009743
0.05389368 0.6497927 0.09863232
0.05475146 0.6511094 0.09623635
0.05558251 0.6523437 0.09378769
0.05638278 0.6534929 0.09128791
0.05714803 0.6545545 0.08873886
0.05787384 0.6555259 0.08614276
0.05855559 0.6564048 0.08350216
0.05918852 0.6571892 0.08081995
0.05976776 0.6578772 0.07809944
0.06028829 0.6584674 0.07534428
0.06074503 0.6589584 0.07255852
0.06113285 0.6593493 0.06974661
0.06144661 0.6596398 0.06691336
0.06168119 0.6598297 0.06406397
0.06183155 0.6599195 0.061204
0.06189277 0.65991 0.05833934
0.06186009 0.6598026 0.05547621
0.06172898 0.6595994 0.0526211
0.06149516 0.6593028 0.04978077
0.06115468 0.658916 0.04696217
0.06070399 0.6584425 0.0441724
0.06013992 0.6578867 0.04141867
0.05945981 0.6572534 0.03870824
0.05866149 0.6565479 0.03604834
0.05774335 0.6557761 0.03344613
0.05670439 0.6549444 0.03090861
0.05554418 0.6540597 0.02844258
0.05426296 0.6531292 0.02605454
0.0528616 0.6521605 0.02375066
0.05134162 0.6511614 0.02153669
0.04970518 0.6501401 0.01941794
0.04795506 0.6491048 0.01739917
0.04609466 0.6480639 0.01548463
0.04412792 0.6470256 0.01367795
0.04205935 0.6459984 0.01198213
0.03989391 0.6449901 0.01039956
0.03763704 0.6440089 0.008931964
0.03529451 0.6430624 0.007580403
0.03287244 0.6421578 0.006345309
0.0303772 0.6413022 0.005226476
0.02781537 0.640502 0.004223094
0.02519364 0.6397632 0.003333774
0.02251878 0.6390915 0.002556583
0.01979758 0.6384918 0.001889089
0.01703677 0.6379686 0.001328401
0.01424301 0.6375259 0.0008712185
0.01142279 0.6371671 0.000513882
0.008582413 0.636895 0.0002524213
0.005727984 0.636712 8.260692e-05
0.00286533 0.6366198 0
0 0.6366198 0

LINES 349 1047
2 0 1
2 1 2
2 2 3
2 3 4
2 4 5
2 5 6
2 6 7
2 7 8
2 8 9
2 9 10
2 10 11
2 11 12
2 12 13
2 13 14
2 14 15
2 15 16
2 16 17
2 17 18
2 18 19
2 19 20
2 20 21
2 21 22
2 22 23
2 23 24
2 24 25
2 25 26
2 26 27
2 27 28
2 28 29
2 29 30
2 30 31
2 31 32
2 32 33
2 33 34
2 34 35
2 35 36
2 36 37
2 37 38
2 38 39
2 39 40
2 40 41
2 41 42
2 42 43
2 43 44
2 44 45
2 45 46
2 46 47
2 47 48
2 48 49
2 49 50
2 50 51
2 51 52
2 52 53
2 53 54
2 54 55
2 55 56
2 56 57
2 57 58
2 58 59
2 59 60
2 60 61
2 61 62
2 62 63
2 63 64
2 64 65
2 65 66
2 66 67
2 67 68
2 68 69
2 69 70
2 70 71
2 71 72
2 72 73
2 73 74
2 74 75
2 75 76
2 76 77
2 77 78
2 78 79
2 79 80
2 80 81
2 81 82
2 82 83
2 83 84
2 84 85
2 85 86
2 86 87
2 87 88
2 88 89
2 89 90
2 90 91
2 91 92
2 92 93
2 93 94
2 94 95
2 95 96
2 96 97
2 97 98
2 98 99
2 99 100
2 100 101
2 101 102
2 102 103
2 103 104
2 104 105
2 105 106
2 106 107
2 107 108
2 108 109
2 109 110
2 110 111
2 111 112
2 112 113
2 113 114
2 114 115
2 115 116
2 116 117
2 117 118
2 118 119
2 119 120
2 120 121
2 121 122
2 122 123
2 123 124
2 124 125
2 125 126
2 126 127
2 127 128
2 128 129
2 129 130
2 130 131
2 131 132
2 132 133
2 133 134
2 134 135
2 135 136
2 136 137
2 137 138
2 138 139
2 139 140
2 140 141
2 141 142
2 142 143
2 143 144
2 144 145
2 145 146
2 146 147
2 147 148
2 148 149
2 149 150
2 150 151
2 151 152
2 152 153
2 153 154
2 154 155
2 155 156
2 156 157
2 157 158
2 158 159
2 159 160
2 160 161
2 161 162
2 162 163
2 163 164
2 164 165
2 165 166
2 166 167
2 167 168
2 168 169
2 169 170
2 170 171
2 171 172
2 172 173
2 173 174
2 174 175
2 175 176
2 176 177
2 177 178
2 178 179
2 179 180
2 180 181
2 181 182
2 182 183
2 183 184
2 184 185
2 185 186
2 186 187
2 187 188
2 188 189
2 189 190
2 190 191
2 191 192
2 192 193
2 193 194
2 194 195
2 195 196
2 196 197
2 197 198
2 198 199
2 199 200
2 200 201
2 201 202
2 202 203
2 203 204
2 204 205
2 205 206
2 206 207
2 207 208
2 208 209
2 209 210
2 210 211
2 211 212
2 212 213
2 213 214
2 214 215
2 215 216
2 216 217
2 217 218
2 218 219
2 219 220
2 220 221
2 221 222
2 222 223
2 223 224
2 224 225
2 225 226
2 226 227
2 227 228
2 228 229
2 229 230
2 230 231
2 231 232
2 232 233
2 233 234
2 234 235
2 235 236
2 236 237
2 237 238
2 238 239
2 239 240
2 240 241
2 241 242
2 242 243
2 243 244
2 244 245
2 245 246
2 246 247
2 247 248
2 248 249
2 249 250
2 250 251
2 251 252
2 252 253
2 253 254
2 254 255
2 255 256
2 256 257
2 257 258
2 258 259
2 259 260
2 260 261
2 261 262
2 262 263
2 263 264
2 264 265
2 265 266
2 266 267
2 267 268
2 268 269
2 269 270
2 270 271
2 271 272
2 272 273
2 273 274
2 274 275
2 275 276
2 276 277
2 277 278
2 278 279
2 279 280
2 280 281
2 281 282
2 282 283
2 283 284
2 284 285
2 285 286
2 286 287
2 287 288
2 288 289
2 289 290
2 290 291
2 291 292
2 292 293
2 293 294
2 294 295
2 295 296
2 296 297
2 297 298
2 298 299
2 299 300
2 300 301
2 301 302
2 302 303
2 303 304
2 304 305
2 305 306
2 306 307
2 307 308
2 308 309
2 309 310
2 310 311
2 311 312
2 312 313
2 313 314
2 314 315
2 315 316
2 316 317
2 317 318
2 318 319
2 319 320
2 320 321
2 321 322
2 322 323
2 323 324
2 324 325
2 325 326
2 326 327
2 327 328
2 328 329
2 329 330
2 330 331
2 331 332
2 332 333
2 333 334
2 334 335
2 335 336
2 336 337
2 337 338
2 338 339
2 339 340
2 340 341
2 341 342
2 342 343
2 343 344
2 344 345
2 345 346
2 346 347
2 347 348
2 348 349


POINT_DATA 350
SCALARS a FLOAT 1
LOOKUP_TABLE default
0.0005894628
0.0005894628
0.0005894628
0.0005894628
0.0005894628
0.0005894628
0.0005894628
0.0005894628
0.0005894628
0.0005894628
0.0005894628
0.0005894628
0.0005894628
0.0005894628
0.0005894628
0.0005894628
0.0005894628
0.0005894628
0.0005894628
0.0005894628
0.0005894628
0.0005894628
0.0005894628
0.0005894628
0.0005894628
0.0005894628
0.0005894628
0.0005894628
0.0005894628
0.0005894628
0.0005894628
0.0005894628
0.0005894628
0.0005894628
0.0005894628
0.0005894628
0.0005894628
0.0005894628
0.0005894628
0.0005894628
0.0005894628
0.0005894628
0.0005894628
0.0005894628
0.0005894628
0.0005894628
0.0005894628
0.0005894628
0.0005894628
0.0005894628
0.0005894628
0.0005894628
0.0005894628
0.0005894628
0.0005894628
0.0005894628
0.0005894628
0.0005894628
0.0005894628
0.0005894628
0.0005894628
0.0005894628
0.0005894628
0.0005894628
0.0005894628
0.0005894628
0.0005894628
0.0005894628
0.0005894628
0.0005894628
0.0005894628
0.0005894628
0.0005894628
0.0005894628
0.0005894628
0.0005894628
0.0005894628
0.0005894628
0.0005894628
0.0005894628
0.0005894628
0.0005894628
0.0005894628
0.0005894628
0.0005894628
0.0005894628
0.0005894628
0.0005894628
0.0005894628
0.0005894628
0.0005894628
0.0005894628
0.0005894628
0.0005894628
0.0005894628
0.0005894628
0.0005894628
0.0005894628
0.0005894628
0.0005894628
0.0005894628
0.0005894628
0.0005894628
0.0005894628
0.0005894628
0.0005894628
0.0005894628
0.0005894628
0.0005894628
0.0005894628
0.0005894628
0.0005894628
0.0005894628
0.0005894628
0.0005894628
0.0005894628
0.0005894628
0.0005894628
0.0005894628
0.0005894628
0.0005894628
0.0005894628
0.0005894628
0.0005894628
0.0005894628
0.0005894628
0.0005894628
0.0005894628
0.0005894628
0.0005894628
0.0005894628
0.0005894628
0.0005894628
0.0005894628
0.0005894628
0.0005894628
0.0005894628
0.0005894628
0.0005894628
0.0005894628
0.0005894628
0.0005894628
0.0005894628
0.0005894628
0.0005894628
0.0005894628
0.0005894628
0.0005894628
0.0005894628
0.0005894628
0.0005894628
0.0005894628
0.0005894628
0.0005894628
0.0005894628
0.0005894628
0.0005894628
0.0005894628
0.0005894628
0.0005894628
0.0005894628
0.0005894628
0.0005894628
0.0005894628
0.0005894628
0.0005894628
0.0005894628
0.0005894628
0.0005894628
0.0005894628
0.0005894628
0.0005894628
0.0005894628
0.0005894628
0.0005894628
0.0005894628
0.0005894628
0.0005894628
0.0005894628
0.0005894628
0.0005894628
0.0005894628
0.0005894628
0.0005894628
0.0005894628
0.0005894628
0.0005894628
0.0005894628
0.0005894628
0.0005894628
0.0005894628
0.0005894628
0.0005894628
0.0005894628
0.0005894628
0.0005894628
0.0005894628
0.0005894628
0.0005894628
0.0005894628
0.0005894628
0.0005894628
0.0005894628
0.0005894628
0.0005894628
0.0005894628
0.0005894628
0.0005894628
0.0005894628
0.0005894628
0.0005894628
0.0005894628
0.0005894628
0.0005894628
0.0005894628
0.0005894628
0.0005894628
0.0005894628
0.0005894628
0.0005894628
0.0005894628
0.0005894628
0.0005894628
0.0005894628
0.0005894628
0.0005894628
0.0005894628
0.0005894628
0.0005894628
0.0005894628
0.0005894628
0.0005894628
0.0005894628
0.0005894628
0.0005894628
0.0005894628
0.0005894628
0.0005894628
0.0005894628
0.0005894628
0.0005894628
0.0005894628
0.0005894628
0.0005894628
0.0005894628
0.0005894628
0.0005894628
0.0005894628
0.0005894628
0.0005894628
0.0005894628
0.0005894628
0.0005894628
0.0005894628
0.0005894628
0.0005894628
0.0005894628
0.0005894628
0.0005894628
0.0005894628
0.0005894628
0.0005894628
0.0005894628
0.0005894628
0.0005894628
0.0005894628
0.0005894628
0.0005894628
0.0005894628
0.0005894628
0.0005894628
0.0005894628
0.0005894628
0.0005894628
0.0005894628
0.0005894628
0.0005894628
0.0005894628
0.0005894628
0.0005894628
0.0005894628
0.0005894628
0.0005894628
0.0005894628
0.0005894628
0.0005894628
0.0005894628
0.0005894628
0.0005894628
0.0005894628
0.0005894628
0.0005894628
0.0005894628
0.0005894628
0.0005894628
0.0005894628
0.0005894628
0.0005894628
0.0005894628
0.0005894628
0.0005894628
0.0005894628
0.0005894628
0.0005894628
0.0005894628
0.0005894628
0.0005894628
0.0005894628
0.0005894628
0.0005894628
0.0005894628
0.0005894628
0.0005894628
0.0005894628
0.0005894628
0.0005894628
0.0005894628
0.0005894628
0.0005894628
0.0005894628
0.0005894628
0.0005894628
0.0005894628
0.0005894628
0.0005894628
0.0005894628
0.0005894628
0.0005894628
0.0005894628
0.0005894628
0.0005894628
0.0005894628
0.0005894628
0.0005894628
0.0005894628
0.0005894628
0.0005894628
0.0005894628
0.0005894628
0.0005894628
0.0005894628
0.0005894628
0.0005894628
0.0005894628
0.0005894628
0.0005894628
0.0005894628
0.0005894628
0.0005894628
0.0005894628


SCALARS b FLOAT 1
LOOKUP_TABLE default
0.04420971
0.04420971
0.04420971
0.04420971
0.04420971
0.04420971
0.04420971
0.04420971
0.04420971
0.04420971
0.04420971
0.04420971
0.04420971
0.04420971
0.04420971
0.04420971
0.04420971
0.04420971
0.04420971
0.04420971
0.04420971
0.04420971
0.04420971
0.04420971
0.04420971
0.04420971
0.04420971
0.04420971
0.04420971
0.04420971
0.04420971
0.04420971
0.04420971
0.04420971
0.04420971
0.04420971
0.04420971
0.04420971
0.04420971
0.04420971
0.04420971
0.04420971
0.04420971
0.04420971
0.04420971
0.04420971
0.04420971
0.04420971
0.04420971
0.04420971
0.04420971
0.04420971
0.04420971
0.04420971
0.04420971
0.04420971
0.04420971
0.04420971
0.04420971
0.04420971
0.04420971
0.04420971
0.04420971
0.04420971
0.04420971
0.04420971
0.04420971
0.04420971
0.04420971
0.04420971
0.04420971
0.04420971
0.04420971
0.04420971
0.04420971
0.04420971
0.04420971
0.04420971
0.04420971
0.04420971
0.04420971
0.04420971
0.04420971
0.04420971
0.04420971
0.04420971
0.04420971
0.04420971
0.04420971
0.04420971
0.04420971
0.04420971
0.04420971
0.04420971
0.04420971
0.04420971
0.04420971
0.04420971
0.04420971
0.04420971
0.04420971
0.04420971
0.04420971
0.04420971
0.04420971
0.04420971
0.04420971
0.04420971
0.04420971
0.04420971
0.04420971
0.04420971
0.04420971
0.04420971
0.04420971
0.04420971
0.04420971
0.04420971
0.04420971
0.04420971
0.04420971
0.04420971
0.04420971
0.04420971
0.04420971
0.04420971
0.04420971
0.04420971
0.04420971
0.04420971
0.04420971
0.04420971
0.04420971
0.04420971
0.04420971
0.04420971
0.04420971
0.04420971
0.04420971
0.04420971
0.04420971
0.04420971
0.04420971
0.04420971
0.04420971
0.04420971
0.04420971
0.04420971
0.04420971
0.04420971
0.04420971
0.04420971
0.04420971
0.04420971
0.04420971
0.04420971
0.04420971
0.04420971
0.04420971
0.04420971
0.04420971
0.04420971
0.04420971
0.04420971
0.04420971
0.04420971
0.04420971
0.04420971
0.04420971
0.04420971
0.04420971
0.04420971
0.04420971
0.04420971
0.04420971
0.04420971
0.04420971
0.04420971
0.04420971
0.04420971
0.04420971
0.04420971
0.04420971
0.04420971
0.04420971
0.04420971
0.04420971
0.04420971
0.04420971
0.04420971
0.04420971
0.04420971
0.04420971
0.04420971
0.04420971
0.04420971
0.04420971
0.04420971
0.04420971
0.04420971
0.04420971
0.04420971
0.04420971
0.04420971
0.04420971
0.04420971
0.04420971
0.04420971
0.04420971
0.04420971
0.04420971
0.04420971
0.04420971
0.04420971
0.04420971
0.04420971
0.04420971
0.04420971
0.04420971
0.04420971
0.04420971
0.04420971
0.04420971
0.04420971
0.04420971
0.04420971
0.04420971
0.04420971
0.04420971
0.04420971
0.04420971
0.04420971
0.04420971
0.04420971
0.04420971
0.04420971
0.04420971
0.04420971
0.04420971
0.04420971
0.04420971
0.04420971
0.04420971
0.04420971
0.04420971
0.04420971
0.04420971
0.04420971
0.04420971
0.04420971
0.04420971
0.04420971
0.04420971
0.04420971
0.04420971
0.04420971
0.04420971
0.04420971
0.04420971
0.04420971
0.04420971
0.04420971
0.04420971
0.04420971
0.04420971
0.04420971
0.04420971
0.04420971
0.04420971
0.04420971
0.04420971
0.04420971
0.04420971
0.04420971
0.04420971
0.04420971
0.04420971
0.04420971
0.04420971
0.04420971
0.04420971
0.04420971
0.04420971
0.04420971
0.04420971
0.04420971
0.04420971
0.04420971
0.04420971
0.04420971
0.04420971
0.04420971
0.04420971
0.04420971
0.04420971
0.04420971
0.04420971
0.04420971
0.04420971
0.04420971
0.04420971
0.04420971
0.04420971
0.04420971
0.04420971
0.04420971
0.04420971
0.04420971
0.04420971
0.04420971
0.04420971
0.04420971
0.04420971
0.04420971
0.04420971
0.04420971
0.04420971
0.04420971
0.04420971
0.04420971
0.04420971
0.04420971
0.04420971
0.04420971
0.04420971
0.04420971
0.04420971
0.04420971
0.04420971
0.04420971
0.04420971
0.04420971
0.04420971
0.04420971
0.04420971
0.04420971
0.04420971
0.04420971
0.04420971
0.04420971
0.04420971
0.04420971
0.04420971
0.04420971
0.04420971
0.04420971
0.04420971
0.04420971
0.04420971
0.04420971


VECTORS d1 FLOAT
0 -0.7558992 0.654688
-0.04319467 -0.7325709 0.6793188
-0.0870911 -0.7066378 0.7021952
-0.1315237 -0.6780809 0.7231237
-0.1763109 -0.6469006 0.7419124
-0.221256 -0.6131189 0.7583739
-0.2661483 -0.5767803 0.7723274
-0.3107649 -0.5379529 0.7836019
-0.3548723 -0.4967296 0.7920388
-0.398229 -0.4532282 0.7974947
-0.4405878 -0.4075918 0.7998446
-0.481699 -0.3599877 0.7989836
-0.5213133 -0.3106074 0.7948305
-0.5591849 -0.2596643 0.7873289
-0.5950752 -0.2073925 0.7764495
-0.6287563 -0.154044 0.7621916
-0.6600138 -0.09988618 0.7445835
-0.6886507 -0.04519855 0.7236832
-0.7144898 0.009730842 0.6995782
-0.7373768 0.06460902 0.6723847
-0.7571822 0.119142 0.6422463
-0.7738035 0.1730386 0.6093323
-0.7871662 0.2260146 0.5738352
-0.7972248 0.277796 0.5359683
-0.803963 0.3281232 0.4959623
-0.8073936 0.3767534 0.4540622
-0.8075572 0.423464 0.4105236
-0.8045214 0.4680547 0.3656092
-0.7983789 0.5103494 0.3195851
-0.7892452 0.5501975 0.2727174
-0.7772563 0.5874748 0.2252687
-0.7625662 0.6220838 0.177495
-0.7453439 0.6539536 0.1296428
-0.7257702 0.683039 0.08194678
-0.7040356 0.70932 0.03462754
-0.6803363 0.7328 -0.01211011
-0.6548727 0.7535042 -0.05807845
-0.6278457 0.7714782 -0.1031078
-0.5994551 0.7867851 -0.1470472
-0.569897 0.7995041 -0.1897644
-0.5393622 0.8097283 -0.231146
-0.5080345 0.8175619 -0.2710969
-0.4760891 0.8231186 -0.3095398
-0.443692 0.8265195 -0.3464145
-0.4109988 0.8278907 -0.3816765
-0.3781542 0.8273623 -0.4152962
-0.3452917 0.825066 -0.447258
-0.3125334 0.8211339 -0.4775583
-0.27999 0.8156974 -0.5062049
-0.2477608 0.8088855 -0.5332156
-0.2159342 0.8008244 -0.5586168
-0.1845882 0.7916364 -0.5824422
-0.1537905 0.7814393 -0.6047322
-0.1235992 0.7703458 -0.6255323
-0.09406359 0.758463 -0.6448922
-0.06522445 0.7458925 -0.6628651
-0.03711485 0.7327299 -0.6795067
-0.009760742 0.7190648 -0.6948745
0.01681841 0.7049807 -0.7090271
0.04260901 0.6905552 -0.7220235
0.06760276 0.6758601 -0.733923
0.09179607 0.6609615 -0.7447841
0.1151895 0.6459199 -0.7546647
0.1377874 0.6307907 -0.7636215
0.1595972 0.615624 -0.7717097
0.1806291 0.6004654 -0.7789829
0.2008959 0.585356 -0.785493
0.220412 0.5703323 -0.7912899
0.2391938 0.5554272 -0.7964213
0.257259 0.5406698 -0.8009332
0.2746263 0.5260856 -0.8048691
0.2913153 0.5116972 -0.8082706
0.3073462 0.497524 -0.811177
0.3227398 0.4835829 -0.8136256
0.3375169 0.4698882 -0.8156515
0.3516987 0.456452 -0.817288
0.3653063 0.4432842 -0.8185661
0.3783605 0.4303929 -0.8195153
0.3908823 0.4177846 -0.8201628
0.402892 0.4054642 -0.8205345
0.4144098 0.3934351 -0.8206542
0.4254554 0.3816996 -0.8205444
0.436048 0.3702587 -0.8202259
0.4462065 0.3591127 -0.8197181
0.4559492 0.3482606 -0.819039
0.4652936 0.3377011 -0.8182052
0.4742571 0.3274318 -0.8172323
0.4828562 0.3174498 -0.8161345
0.4911069 0.3077517 -0.8149251
0.4990248 0.2983337 -0.8136162
0.5066246 0.2891915 -0.812219
0.5139209 0.2803203 -0.810744
0.5209273 0.2717153 -0.8092005
0.5276571 0.2633713 -0.8075974
0.534123 0.2552828 -0.8059425
0.5403372 0.2474442 -0.8042432
0.5463113 0.2398498 -0.8025061
0.5520565 0.2324937 -0.8007374
0.5575835 0.2253699 -0.7989425
0.5629025 0.2184724 -0.7971265
0.5680232 0.211795 -0.795294
0.572955 0.2053317 -0.7934491
0.5777066 0.1990763 -0.7915957
0.5822867 0.1930227 -0.789737
0.5867031 0.1871647 -0.7878762
0.5909636 0.1814962 -0.786016
0.5950755 0.1760111 -0.7841589
0.5990457 0.1707034 -0.7823072
0.6028807 0.1655671 -0.7804629
0.6065868 0.1605962 -0.7786278
0.6101699 0.155785 -0.7768035
0.6136355 0.1511277 -0.7749915
0.616989 0.1466186 -0.7731931
0.6202353 0.1422521 -0.7714095
0.6233791 0.1380227 -0.7696416
0.6264248 0.1339252 -0.7678906
0.6293767 0.1299541 -0.7661572
0.6322387 0.1261045 -0.7644422
0.6350143 0.1223712 -0.7627464
0.6377072 0.1187495 -0.7610703
0.6403205 0.1152345 -0.7594147
0.6428573 0.1118218 -0.7577799
0.6453205 0.1085067 -0.7561665
0.6477126 0.1052851 -0.754575
0.6500362 0.1021526 -0.7530058
0.6522936 0.09910529 -0.7514594
0.654487 0.09613922 -0.749936
0.6566183 0.09325062 -0.7484362
0.6586895 0.09043586 -0.7469602
0.6607023 0.08769143 -0.7455084
0.6626583 0.08501397 -0.7440811
0.664559 0.08240021 -0.7426786
0.6664058 0.07984706 -0.7413014
0.6682001 0.0773515 -0.7399496
0.6699429 0.07491066 -0.7386236
0.6716355 0.07252178 -0.7373238
0.6732787 0.07018218 -0.7360504
0.6748736 0.06788934 -0.7348038
0.676421 0.06564079 -0.7335842
0.6779218 0.0634342 -0.7323921
0.6793765 0.0612673 -0.7312277
0.6807859 0.05913795 -0.7300913
0.6821505 0.05704408 -0.7289833
0.6834709 0.05498369 -0.7279041
0.6847476 0.05295488 -0.7268539
0.685981 0.05095585 -0.7258331
0.6871714 0.04898483 -0.724842
0.6883192 0.04704015 -0.7238811
0.6894247 0.04512022 -0.7229507
0.6904882 0.0432235 -0.7220511
0.6915098 0.04134853 -0.7211827
0.6924897 0.03949389 -0.7203459
0.6934281 0.03765826 -0.719541
0.6943251 0.03584034 -0.7187685
0.6951806 0.03403892 -0.7180287
0.6959949 0.03225281 -0.717322
0.6967679 0.03048091 -0.7166487
0.6974996 0.02872214 -0.7160093
0.6981901 0.02697548 -0.715404
0.6988392 0.02523997 -0.7148334
0.699447 0.02351467 -0.7142976
0.7000133 0.02179871 -0.713797
0.7005381 0.02009123 -0.7133321
0.7010214 0.01839142 -0.7129031
0.701463 0.01669853 -0.7125102
0.7018629 0.0150118 -0.7121539
0.7022209 0.01333053 -0.7118343
0.7025371 0.01165405 -0.7115517
0.7028113 0.00998169 -0.7113063
0.7030434 0.008312827 -0.7110983
0.7032335 0.006646846 -0.7109279
0.7033813 0.004983151 -0.7107953
0.703487 0.003321158 -0.7107004
0.7035504 0.001660296 -0.7106435
0.7035715 -3.321455e-09 -0.7106245
0.7035504 -0.001660303 -0.7106435
0.703487 -0.003321165 -0.7107004
0.7033813 -0.004983157 -0.7107953
0.7032335 -0.006646852 -0.7109279
0.7030434 -0.008312833 -0.7110983
0.7028113 -0.009981697 -0.7113063
0.7025371 -0.01165405 -0.7115517
0.7022209 -0.01333054 -0.7118343
0.7018629 -0.01501181 -0.7121539
0.701463 -0.01669853 -0.7125102
0.7010214 -0.01839143 -0.7129031
0.7005381 -0.02009123 -0.7133321
0.7000133 -0.02179871 -0.713797
0.699447 -0.02351468 -0.7142976
0.6988392 -0.02523998 -0.7148334
0.6981901 -0.02697549 -0.715404
0.6974996 -0.02872214 -0.7160093
0.6967679 -0.03048091 -0.7166487
0.6959949 -0.03225282 -0.717322
0.6951806 -0.03403892 -0.7180287
0.6943251 -0.03584035 -0.7187685
0.6934281 -0.03765827 -0.719541
0.6924897 -0.0394939 -0.7203459
0.6915098 -0.04134853 -0.7211827
0.6904882 -0.04322351 -0.7220511
0.6894247 -0.04512023 -0.7229507
0.6883192 -0.04704016 -0.7238811
0.6871714 -0.04898483 -0.724842
0.685981 -0.05095585 -0.7258331
0.6847476 -0.05295489 -0.7268539
0.6834709 -0.05498369 -0.7279041
0.6821505 -0.05704408 -0.7289833
0.6807859 -0.05913796 -0.7300913
0.6793765 -0.06126731 -0.7312277
0.6779218 -0.0634342 -0.7323921
0.676421 -0.0656408 -0.7335842
0.6748736 -0.06788934 -0.7348038
0.6732787 -0.07018219 -0.7360504
0.6716355 -0.07252178 -0.7373238
0.6699429 -0.07491067 -0.7386236
0.6682001 -0.07735151 -0.7399496
0.6664058 -0.07984706 -0.7413014
0.664559 -0.08240022 -0.7426786
0.6626583 -0.08501397 -0.7440811
0.6607023 -0.08769144 -0.7455084
0.6586895 -0.09043587 -0.7469602