# vtk DataFile Version 2.0
Written badly by Kevin Korner
ASCII
DATASET POLYDATA
POINTS 350 FLOAT
0 0 0
0.00286533 0 0
0.005722021 -0.000222305 3.017475e-06
0.008551537 -0.0006738457 1.077513e-05
0.01133353 -0.001359737 2.508306e-05
0.01404597 -0.002282901 4.781338e-05
0.01666543 -0.003443696 8.086877e-05
0.01916736 -0.00483956 0.0001261452
0.02152649 -0.006464702 0.0001854892
0.02371736 -0.008309848 0.0002606515
0.02571482 -0.01036208 0.0003532374
0.02749471 -0.01260478 0.000464657
0.02903444 -0.01501768 0.0005960767
0.0303137 -0.01757706 0.0007483754
0.03131503 -0.0202561 0.0009221076
0.03202446 -0.02302533 0.001117475
0.03243189 -0.02585325 0.001334311
0.03253153 -0.02870695 0.001572077
0.03232205 -0.03155297 0.001829871
0.03180664 -0.03435796 0.002106451
0.03099291 -0.03708955 0.002400273
0.02989259 -0.03971705 0.00270953
0.02852117 -0.04221209 0.00303221
0.02689736 -0.04454915 0.003366154
0.0250425 -0.04670599 0.00370911
0.02297991 -0.04866394 0.004058794
0.02073426 -0.050408 0.004412948
0.0183309 -0.05192686 0.00476938
0.01579531 -0.05321282 0.005126013
0.01315252 -0.05426155 0.005480914
0.01042671 -0.05507183 0.005832319
0.007640776 -0.05564521 0.006178649
0.004816114 -0.05598563 0.006518522
0.001972372 -0.05609907 0.00685075
-0.0008726559 -0.05599315 0.00717434
-0.00370309 -0.05567681 0.007488484
-0.00650497 -0.05515997 0.007792548
-0.009266206 -0.05445319 0.008086057
-0.0119765 -0.05356745 0.008368683
-0.01462725 -0.05251392 0.008640228
-0.01721139 -0.05130374 0.008900604
-0.0197233 -0.04994791 0.009149825
-0.02215865 -0.0484571 0.009387984
-0.02451422 -0.04684164 0.009615247
-0.02678785 -0.04511137 0.009831835
-0.02897822 -0.04327565 0.01003802
-0.03108479 -0.04134328 0.01023409
-0.03310766 -0.03932254 0.01042039
-0.03504748 -0.03722113 0.01059726
-0.03690536 -0.03504622 0.01076507
-0.03868278 -0.03280444 0.01092419
-0.04038153 -0.03050191 0.01107498
-0.04200362 -0.02814426 0.01121782
-0.04355126 -0.02573664 0.01135308
-0.0450268 -0.02328379 0.01148111
-0.04643268 -0.02079 0.01160227
-0.04777139 -0.01825923 0.0117169
-0.04904549 -0.01569505 0.01182533
-0.05025751 -0.01310071 0.01192788
-0.05140998 -0.01047916 0.01202485
-0.05250542 -0.007833082 0.01211654
-0.05354629 -0.0051649 0.01220323
-0.054535 -0.002476806 0.01228518
-0.0554739 0.0002292173 0.01236266
-0.05636529 0.00295138 0.0124359
-0.05721138 0.005688067 0.01250514
-0.05801432 0.008437818 0.01257058
-0.05877615 0.01119932 0.01263245
-0.05949888 0.01397139 0.01269094
-0.0601844 0.01675295 0.01274623
-0.06083456 0.01954306 0.0127985
-0.0614511 0.02234083 0.01284792
-0.06203569 0.0251455 0.01289464
-0.06258995 0.02795637 0.01293882
-0.0631154 0.0307728 0.01298058
-0.0636135 0.03359422 0.01302008
-0.06408564 0.03642014 0.01305742
-0.06453315 0.03925009 0.01309274
-0.06495729 0.04208366 0.01312614
-0.06535925 0.04492047 0.01315772
-0.06574019 0.04776021 0.01318759
-0.06610118 0.05060257 0.01321585
-0.06644327 0.05344728 0.01324257
-0.06676742 0.0562941 0.01326785
-0.06707457 0.05914282 0.01329176
-0.0673656 0.06199324 0.01331438
-0.06764135 0.06484519 0.01333577
-0.06790263 0.06769851 0.01335601
-0.06815018 0.07055306 0.01337517
-0.06838472 0.07340872 0.01339328
-0.06860693 0.07626537 0.01341042
-0.06881745 0.07912291 0.01342664
-0.06901691 0.08198125 0.01344199
-0.06920587 0.0848403 0.01345651
-0.06938489 0.0877 0.01347024
-0.06955449 0.09056028 0.01348324
-0.06971516 0.09342107 0.01349554
-0.06986737 0.09628233 0.01350718
-0.07001157 0.09914401 0.0135182
-0.07014818 0.1020061 0.01352862
-0.07027759 0.1048685 0.01353848
-0.07040018 0.1077311 0.01354781
-0.07051632 0.1105941 0.01355665
-0.07062633 0.1134573 0.013565
-0.07073055 0.1163207 0.01357291
-0.07082928 0.1191843 0.01358039
-0.0709228 0.1220481 0.01358747
-0.07101139 0.1249121 0.01359418
-0.0710953 0.1277762 0.01360052
-0.0711748 0.1306404 0.01360652
-0.07125009 0.1335047 0.01361219
-0.07132142 0.1363692 0.01361756
-0.07138898 0.1392337 0.01362265
-0.07145298 0.1420983 0.01362746
-0.07151359 0.144963 0.01363201
-0.071571 0.1478278 0.01363631
-0.07162538 0.1506926 0.01364039
-0.07167689 0.1535574 0.01364424
-0.07172567 0.1564223 0.01364788
-0.07177187 0.1592873 0.01365133
-0.07181563 0.1621523 0.01365459
-0.07185707 0.1650173 0.01365768
-0.07189631 0.1678824 0.0136606
-0.07193347 0.1707475 0.01366336
-0.07196866 0.1736126 0.01366597
-0.07200198 0.1764777 0.01366844
-0.07203353 0.1793429 0.01367077
-0.0720634 0.182208 0.01367298
-0.07209168 0.1850732 0.01367507
-0.07211845 0.1879384 0.01367704
-0.07214378 0.1908036 0.0136789
-0.07216777 0.1936689 0.01368067
-0.07219047 0.1965341 0.01368233
-0.07221194 0.1993994 0.01368391
-0.07223226 0.2022646 0.01368539
-0.07225149 0.2051299 0.0136868
-0.07226967 0.2079952 0.01368812
-0.07228687 0.2108604 0.01368938
-0.07230313 0.2137257 0.01369056
-0.0723185 0.216591 0.01369168
-0.07233303 0.2194563 0.01369273
-0.07234675 0.2223216 0.01369372
-0.07235972 0.2251869 0.01369466
-0.07237196 0.2280522 0.01369554
-0.07238351 0.2309175 0.01369637
-0.07239441 0.2337828 0.01369716
-0.07240468 0.2366481 0.01369789
-0.07241437 0.2395134 0.01369859
-0.07242349 0.2423788 0.01369924
-0.07243207 0.2452441 0.01369985
-0.07244015 0.2481094 0.01370043
-0.07244773 0.2509747 0.01370097
-0.07245485 0.25384 0.01370148
-0.07246153 0.2567053 0.01370195
-0.07246778 0.2595707 0.01370239
-0.07247362 0.262436 0.01370281
-0.07247907 0.2653013 0.01370319
-0.07248415 0.2681666 0.01370355
-0.07248887 0.271032 0.01370388
-0.07249325 0.2738973 0.01370419
-0.07249729 0.2767626 0.01370447
-0.07250101 0.2796279 0.01370474
-0.07250442 0.2824933 0.01370497
-0.07250754 0.2853586 0.01370519
-0.07251036 0.2882239 0.01370539
-0.0725129 0.2910893 0.01370557
-0.07251516 0.2939546 0.01370573
-0.07251716 0.2968199 0.01370586
-0.0725189 0.2996852 0.01370598
-0.07252037 0.3025506 0.01370609
-0.0725216 0.3054159 0.01370617
-0.07252258 0.3082812 0.01370624
-0.0725233 0.3111466 0.01370629
-0.07252379 0.3140119 0.01370632
-0.07252403 0.3168772 0.01370634
-0.07252403 0.3197426 0.01370634
-0.07252379 0.3226079 0.01370632
-0.0725233 0.3254732 0.01370629
-0.07252258 0.3283385 0.01370624
-0.0725216 0.3312039 0.01370617
-0.07252037 0.3340692 0.01370608
-0.0725189 0.3369345 0.01370598
-0.07251716 0.3397999 0.01370586
-0.07251516 0.3426652 0.01370572
-0.0725129 0.3455305 0.01370556
-0.07251036 0.3483958 0.01370538
-0.07250754 0.3512612 0.01370518
-0.07250442 0.3541265 0.01370496
-0.07250101 0.3569918 0.01370472
-0.07249729 0.3598572 0.01370446
-0.07249325 0.3627225 0.01370417
-0.07248887 0.3655878 0.01370386
-0.07248415 0.3684531 0.01370353
-0.07247907 0.3713185 0.01370317
-0.07247362 0.3741838 0.01370279
-0.07246778 0.3770491 0.01370237
-0.07246153 0.3799144 0.01370193
-0.07245485 0.3827798 0.01370145
-0.07244773 0.3856451 0.01370094
-0.07244015 0.3885104 0.0137004
-0.07243207 0.3913757 0.01369983
-0.07242349 0.394241 0.01369921
-0.07241437 0.3971063 0.01369856
-0.07240468 0.3999717 0.01369786
-0.07239441 0.402837 0.01369712
-0.07238351 0.4057023 0.01369634
-0.07237196 0.4085676 0.01369551
-0.07235972 0.4114329 0.01369462
-0.07234675 0.4142982 0.01369369
-0.07233303 0.4171635 0.01369269
-0.0723185 0.4200288 0.01369164
-0.07230313 0.4228941 0.01369052
-0.07228687 0.4257593 0.01368934
-0.07226967 0.4286246 0.01368808
-0.07225149 0.4314899 0.01368675
-0.07223227 0.4343552 0.01368535
-0.07221194 0.4372204 0.01368386
-0.07219047 0.4400857 0.01368229
-0.07216777 0.4429509 0.01368062
-0.07214379 0.4458161 0.01367886
-0.07211845 0.4486813 0.01367699
-0.07209168 0.4515465 0.01367502
-0.0720634 0.4544117 0.01367293
-0.07203353 0.4572769 0.01367072
-0.07200198 0.4601421 0.01366838
-0.07196866 0.4630072 0.01366591
-0.07193347 0.4658723 0.0136633
-0.07189631 0.4687374 0.01366054
-0.07185707 0.4716025 0.01365762
-0.07181563 0.4744675 0.01365454
-0.07177187 0.4773325 0.01365127
-0.07172567 0.4801974 0.01364782
-0.07167689 0.4830623 0.01364418
-0.07162538 0.4859272 0.01364032
-0.07157101 0.488792 0.01363625
-0.07151359 0.4916568 0.01363194
-0.07145298 0.4945215 0.01362739
-0.07138898 0.4973861 0.01362258
-0.07132142 0.5002506 0.0136175
-0.0712501 0.503115 0.01361212
-0.0711748 0.5059794 0.01360644
-0.07109531 0.5088436 0.01360044
-0.07101139 0.5117077 0.0135941
-0.0709228 0.5145716 0.0135874
-0.07082928 0.5174354 0.01358032
-0.07073055 0.520299 0.01357283
-0.07062634 0.5231625 0.01356493
-0.07051632 0.5260257 0.01355657
-0.07040018 0.5288886 0.01354774
-0.07027759 0.5317513 0.0135384
-0.07014818 0.5346137 0.01352854
-0.07001158 0.5374758 0.01351812
-0.06986738 0.5403374 0.0135071
-0.06971516 0.5431987 0.01349546
-0.06955449 0.5460595 0.01348316
-0.06938489 0.5489198 0.01347016
-0.06920587 0.5517795 0.01345642
-0.06901691 0.5546385 0.0134419
-0.06881746 0.5574969 0.01342655
-0.06860693 0.5603544 0.01341033
-0.06838472 0.5632111 0.01339319
-0.06815018 0.5660667 0.01337507
-0.06790263 0.5689213 0.01335592
-0.06764136 0.5717746 0.01333568
-0.0673656 0.5746265 0.01331428
-0.06707457 0.577477 0.01329166
-0.06676742 0.5803257 0.01326775
-0.06644327 0.5831725 0.01324247
-0.06610119 0.5860172 0.01321575
-0.06574019 0.5888596 0.0131875
-0.06535926 0.5916993 0.01315762
-0.06495729 0.5945361 0.01312604
-0.06453315 0.5973697 0.01309264
-0.06408565 0.6001996 0.01305732
-0.0636135 0.6030256 0.01301998
-0.0631154 0.605847 0.01298048
-0.06258996 0.6086634 0.01293872
-0.0620357 0.6114743 0.01289454
-0.0614511 0.6142789 0.01284782
-0.06083456 0.6170767 0.0127984
-0.06018441 0.6198668 0.01274613
-0.05949888 0.6226484 0.01269084
-0.05877615 0.6254205 0.01263235
-0.05801432 0.628182 0.01257048
-0.05721139 0.6309317 0.01250503
-0.0563653 0.6336684 0.0124358
-0.05547391 0.6363906 0.01236256
-0.054535 0.6390966 0.01228508
-0.05354629 0.6417847 0.01220312
-0.05250542 0.6444529 0.01211644
-0.05140998 0.6470989 0.01202475
-0.05025751 0.6497205 0.01192778
-0.04904549 0.6523148 0.01182523
-0.0477714 0.654879 0.0117168
-0.04643268 0.6574098 0.01160217
-0.0450268 0.6599036 0.01148101
-0.04355126 0.6623564 0.01135298
-0.04200362 0.664764 0.01121773
-0.04038153 0.6671217 0.01107489
-0.03868279 0.6694242 0.01092409
-0.03690537 0.671666 0.01076498
-0.03504748 0.6738409 0.01059717
-0.03310766 0.6759423 0.0104203
-0.03108479 0.6779631 0.010234
-0.02897822 0.6798954 0.01003793
-0.02678785 0.6817311 0.009831749
-0.02451423 0.6834614 0.009615163
-0.02215865 0.6850769 0.009387903
-0.0197233 0.6865677 0.009149746
-0.01721139 0.6879235 0.008900528
-0.01462725 0.6891337 0.008640154
-0.0119765 0.6901872 0.008368613
-0.009266208 0.691073 0.008085989
-0.006504972 0.6917797 0.007792483
-0.003703092 0.6922966 0.007488423
-0.0008726567 0.6926129 0.007174283
0.001972372 0.6927188 0.006850696
0.004816114 0.6926054 0.006518471
0.007640777 0.692265 0.006178602
0.01042671 0.6916916 0.005832275
0.01315252 0.6908813 0.005480874
0.01579531 0.6898326 0.005125976
0.0183309 0.6885466 0.004769346
0.02073426 0.6870278 0.004412917
0.02297991 0.6852837 0.004058767
0.0250425 0.6833258 0.003709085
0.02689736 0.6811689 0.003366132
0.02852117 0.6788319 0.003032191
0.02989259 0.6763368 0.002709513
0.03099291 0.6737093 0.002400258
0.03180664 0.6709777 0.002106439
0.03232205 0.6681727 0.001829861
0.03253153 0.6653267 0.001572069
0.03243189 0.662473 0.001334304
0.03202446 0.6596451 0.001117469
0.03131503 0.6568759 0.000922103
0.0303137 0.6541968 0.0007483718
0.02903445 0.6516374 0.0005960739
0.02749471 0.6492246 0.0004646549
0.02571482 0.6469819 0.000353236
0.02371736 0.6449296 0.0002606505
0.02152649 0.6430845 0.0001854885
0.01916736 0.6414593 0.0001261447
0.01666543 0.6400635 8.086851e-05
0.01404597 0.6389027 4.781324e-05
0.01133353 0.6379795 2.508299e-05
0.008551537 0.6372936 1.077511e-05
0.005722021 0.6368421 3.017471e-06
0.00286533 0.6366198 0
0 0.6366198 0

LINES 349 1047
2 0 1
2 1 2
2 2 3
2 3 4
2 4 5
2 5 6
2 6 7
2 7 8
2 8 9
2 9 10
2 10 11
2 11 12
2 12 13
2 13 14
2 14 15
2 15 16
2 16 17
2 17 18
2 18 19
2 19 20
2 20 21
2 21 22
2 22 23
2 23 24
2 24 25
2 25 26
2 26 27
2 27 28
2 28 29
2 29 30
2 30 31
2 31 32
2 32 33
2 33 34
2 34 35
2 35 36
2 36 37
2 37 38
2 38 39
2 39 40
2 40 41
2 41 42
2 42 43
2 43 44
2 44 45
2 45 46
2 46 47
2 47 48
2 48 49
2 49 50
2 50 51
2 51 52
2 52 53
2 53 54
2 54 55
2 55 56
2 56 57
2 57 58
2 58 59
2 59 60
2 60 61
2 61 62
2 62 63
2 63 64
2 64 65
2 65 66
2 66 67
2 67 68
2 68 69
2 69 70
2 70 71
2 71 72
2 72 73
2 73 74
2 74 75
2 75 76
2 76 77
2 77 78
2 78 79
2 79 80
2 80 81
2 81 82
2 82 83
2 83 84
2 84 85
2 85 86
2 86 87
2 87 88
2 88 89
2 89 90
2 90 91
2 91 92
2 92 93
2 93 94
2 94 95
2 95 96
2 96 97
2 97 98
2 98 99
2 99 100
2 100 101
2 101 102
2 102 103
2 103 104
2 104 105
2 105 106
2 106 107
2 107 108
2 108 109
2 109 110
2 110 111
2 111 112
2 112 113
2 113 114
2 114 115
2 115 116
2 116 117
2 117 118
2 118 119
2 119 120
2 120 121
2 121 122
2 122 123
2 123 124
2 124 125
2 125 126
2 126 127
2 127 128
2 128 129
2 129 130
2 130 131
2 131 132
2 132 133
2 133 134
2 134 135
2 135 136
2 136 137
2 137 138
2 138 139
2 139 140
2 140 141
2 141 142
2 142 143
2 143 144
2 144 145
2 145 146
2 146 147
2 147 148
2 148 149
2 149 150
2 150 151
2 151 152
2 152 153
2 153 154
2 154 155
2 155 156
2 156 157
2 157 158
2 158 159
2 159 160
2 160 161
2 161 162
2 162 163
2 163 164
2 164 165
2 165 166
2 166 167
2 167 168
2 168 169
2 169 170
2 170 171
2 171 172
2 172 173
2 173 174
2 174 175
2 175 176
2 176 177
2 177 178
2 178 179
2 179 180
2 180 181
2 181 182
2 182 183
2 183 184
2 184 185
2 185 186
2 186 187
2 187 188
2 188 189
2 189 190
2 190 191
2 191 192
2 192 193
2 193 194
2 194 195
2 195 196
2 196 197
2 197 198
2 198 199
2 199 200
2 200 201
2 201 202
2 202 203
2 203 204
2 204 205
2 205 206
2 206 207
2 207 208
2 208 209
2 209 210
2 210 211
2 211 212
2 212 213
2 213 214
2 214 215
2 215 216
2 216 217
2 217 218
2 218 219
2 219 220
2 220 221
2 221 222
2 222 223
2 223 224
2 224 225
2 225 226
2 226 227
2 227 228
2 228 229
2 229 230
2 230 231
2 231 232
2 232 233
2 233 234
2 234 235
2 235 236
2 236 237
2 237 238
2 238 239
2 239 240
2 240 241
2 241 242
2 242 243
2 243 244
2 244 245
2 245 246
2 246 247
2 247 248
2 248 249
2 249 250
2 250 251
2 251 252
2 252 253
2 253 254
2 254 255
2 255 256
2 256 257
2 257 258
2 258 259
2 259 260
2 260 261
2 261 262
2 262 263
2 263 264
2 264 265
2 265 266
2 266 267
2 267 268
2 268 269
2 269 270
2 270 271
2 271 272
2 272 273
2 273 274
2 274 275
2 275 276
2 276 277
2 277 278
2 278 279
2 279 280
2 280 281
2 281 282
2 282 283
2 283 284
2 284 285
2 285 286
2 286 287
2 287 288
2 288 289
2 289 290
2 290 291
2 291 292
2 292 293
2 293 294
2 294 295
2 295 296
2 296 297
2 297 298
2 298 299
2 299 300
2 300 301
2 301 302
2 302 303
2 303 304
2 304 305
2 305 306
2 306 307
2 307 308
2 308 309
2 309 310
2 310 311
2 311 312
2 312 313
2 313 314
2 314 315
2 315 316
2 316 317
2 317 318
2 318 319
2 319 320
2 320 321
2 321 322
2 322 323
2 323 324
2 324 325
2 325 326
2 326 327
2 327 328
2 328 329
2 329 330
2 330 331
2 331 332
2 332 333
2 333 334
2 334 335
2 335 336
2 336 337
2 337 338
2 338 339
2 339 340
2 340 341
2 341 342
2 342 343
2 343 344
2 344 345
2 345 346
2 346 347
2 347 348
2 348 349


POINT_DATA 350
SCALARS a FLOAT 1
LOOKUP_TABLE default
0.0005894628
0.0005894628
0.0005894628
0.0005894628
0.0005894628
0.0005894628
0.0005894628
0.0005894628
0.0005894628
0.0005894628
0.0005894628
0.0005894628
0.0005894628
0.0005894628
0.0005894628
0.0005894628
0.0005894628
0.0005894628
0.0005894628
0.0005894628
0.0005894628
0.0005894628
0.0005894628
0.0005894628
0.0005894628
0.0005894628
0.0005894628
0.0005894628
0.0005894628
0.0005894628
0.0005894628
0.0005894628
0.0005894628
0.0005894628
0.0005894628
0.0005894628
0.0005894628
0.0005894628
0.0005894628
0.0005894628
0.0005894628
0.0005894628
0.0005894628
0.0005894628
0.0005894628
0.0005894628
0.0005894628
0.0005894628
0.0005894628
0.0005894628
0.0005894628
0.0005894628
0.0005894628
0.0005894628
0.0005894628
0.0005894628
0.0005894628
0.0005894628
0.0005894628
0.0005894628
0.0005894628
0.0005894628
0.0005894628
0.0005894628
0.0005894628
0.0005894628
0.0005894628
0.0005894628
0.0005894628
0.0005894628
0.0005894628
0.0005894628
0.0005894628
0.0005894628
0.0005894628
0.0005894628
0.0005894628
0.0005894628
0.0005894628
0.0005894628
0.0005894628
0.0005894628
0.0005894628
0.0005894628
0.0005894628
0.0005894628
0.0005894628
0.0005894628
0.0005894628
0.0005894628
0.0005894628
0.0005894628
0.0005894628
0.0005894628
0.0005894628
0.0005894628
0.0005894628
0.0005894628
0.0005894628
0.0005894628
0.0005894628
0.0005894628
0.0005894628
0.0005894628
0.0005894628
0.0005894628
0.0005894628
0.0005894628
0.0005894628
0.0005894628
0.0005894628
0.0005894628
0.0005894628
0.0005894628
0.0005894628
0.0005894628
0.0005894628
0.0005894628
0.0005894628
0.0005894628
0.0005894628
0.0005894628
0.0005894628
0.0005894628
0.0005894628
0.0005894628
0.0005894628
0.0005894628
0.0005894628
0.0005894628
0.0005894628
0.0005894628
0.0005894628
0.0005894628
0.0005894628
0.0005894628
0.0005894628
0.0005894628
0.0005894628
0.0005894628
0.0005894628
0.0005894628
0.0005894628
0.0005894628
0.0005894628
0.0005894628
0.0005894628
0.0005894628
0.0005894628
0.0005894628
0.0005894628
0.0005894628
0.0005894628
0.0005894628
0.0005894628
0.0005894628
0.0005894628
0.0005894628
0.0005894628
0.0005894628
0.0005894628
0.0005894628
0.0005894628
0.0005894628
0.0005894628
0.0005894628
0.0005894628
0.0005894628
0.0005894628
0.0005894628
0.0005894628
0.0005894628
0.0005894628
0.0005894628
0.0005894628
0.0005894628
0.0005894628
0.0005894628
0.0005894628
0.0005894628
0.0005894628
0.0005894628
0.0005894628
0.0005894628
0.0005894628
0.0005894628
0.0005894628
0.0005894628
0.0005894628
0.0005894628
0.0005894628
0.0005894628
0.0005894628
0.0005894628
0.0005894628
0.0005894628
0.0005894628
0.0005894628
0.0005894628
0.0005894628
0.0005894628
0.0005894628
0.0005894628
0.0005894628
0.0005894628
0.0005894628
0.0005894628
0.0005894628
0.0005894628
0.0005894628
0.0005894628
0.0005894628
0.0005894628
0.0005894628
0.0005894628
0.0005894628
0.0005894628
0.0005894628
0.0005894628
0.0005894628
0.0005894628
0.0005894628
0.0005894628
0.0005894628
0.0005894628
0.0005894628
0.0005894628
0.0005894628
0.0005894628
0.0005894628
0.0005894628
0.0005894628
0.0005894628
0.0005894628
0.0005894628
0.0005894628
0.0005894628
0.0005894628
0.0005894628
0.0005894628
0.0005894628
0.0005894628
0.0005894628
0.0005894628
0.0005894628
0.0005894628
0.0005894628
0.0005894628
0.0005894628
0.0005894628
0.0005894628
0.0005894628
0.0005894628
0.0005894628
0.0005894628
0.0005894628
0.0005894628
0.0005894628
0.0005894628
0.0005894628
0.0005894628
0.0005894628
0.0005894628
0.0005894628
0.0005894628
0.0005894628
0.0005894628
0.0005894628
0.0005894628
0.0005894628
0.0005894628
0.0005894628
0.0005894628
0.0005894628
0.0005894628
0.0005894628
0.0005894628
0.0005894628
0.0005894628
0.0005894628
0.0005894628
0.0005894628
0.0005894628
0.0005894628
0.0005894628
0.0005894628
0.0005894628
0.0005894628
0.0005894628
0.0005894628
0.0005894628
0.0005894628
0.0005894628
0.0005894628
0.0005894628
0.0005894628
0.0005894628
0.0005894628
0.0005894628
0.0005894628
0.0005894628
0.0005894628
0.0005894628
0.0005894628
0.0005894628
0.0005894628
0.0005894628
0.0005894628
0.0005894628
0.0005894628
0.0005894628
0.0005894628
0.0005894628
0.0005894628
0.0005894628
0.0005894628
0.0005894628
0.0005894628
0.0005894628
0.0005894628
0.0005894628
0.0005894628
0.0005894628
0.0005894628
0.0005894628
0.0005894628
0.0005894628
0.0005894628
0.0005894628
0.0005894628
0.0005894628
0.0005894628
0.0005894628
0.0005894628
0.0005894628
0.0005894628
0.0005894628
0.0005894628
0.0005894628
0.0005894628
0.0005894628
0.0005894628
0.0005894628
0.0005894628
0.0005894628
0.0005894628
0.0005894628
0.0005894628
0.0005894628
0.0005894628


SCALARS b FLOAT 1
LOOKUP_TABLE default
0.04420971
0.04420971
0.04420971
0.04420971
0.04420971
0.04420971
0.04420971
0.04420971
0.04420971
0.04420971
0.04420971
0.04420971
0.04420971
0.04420971
0.04420971
0.04420971
0.04420971
0.04420971
0.04420971
0.04420971
0.04420971
0.04420971
0.04420971
0.04420971
0.04420971
0.04420971
0.04420971
0.04420971
0.04420971
0.04420971
0.04420971
0.04420971
0.04420971
0.04420971
0.04420971
0.04420971
0.04420971
0.04420971
0.04420971
0.04420971
0.04420971
0.04420971
0.04420971
0.04420971
0.04420971
0.04420971
0.04420971
0.04420971
0.04420971
0.04420971
0.04420971
0.04420971
0.04420971
0.04420971
0.04420971
0.04420971
0.04420971
0.04420971
0.04420971
0.04420971
0.04420971
0.04420971
0.04420971
0.04420971
0.04420971
0.04420971
0.04420971
0.04420971
0.04420971
0.04420971
0.04420971
0.04420971
0.04420971
0.04420971
0.04420971
0.04420971
0.04420971
0.04420971
0.04420971
0.04420971
0.04420971
0.04420971
0.04420971
0.04420971
0.04420971
0.04420971
0.04420971
0.04420971
0.04420971
0.04420971
0.04420971
0.04420971
0.04420971
0.04420971
0.04420971
0.04420971
0.04420971
0.04420971
0.04420971
0.04420971
0.04420971
0.04420971
0.04420971
0.04420971
0.04420971
0.04420971
0.04420971
0.04420971
0.04420971
0.04420971
0.04420971
0.04420971
0.04420971
0.04420971
0.04420971
0.04420971
0.04420971
0.04420971
0.04420971
0.04420971
0.04420971
0.04420971
0.04420971
0.04420971
0.04420971
0.04420971
0.04420971
0.04420971
0.04420971
0.04420971
0.04420971
0.04420971
0.04420971
0.04420971
0.04420971
0.04420971
0.04420971
0.04420971
0.04420971
0.04420971
0.04420971
0.04420971
0.04420971
0.04420971
0.04420971
0.04420971
0.04420971
0.04420971
0.04420971
0.04420971
0.04420971
0.04420971
0.04420971
0.04420971
0.04420971
0.04420971
0.04420971
0.04420971
0.04420971
0.04420971
0.04420971
0.04420971
0.04420971
0.04420971
0.04420971
0.04420971
0.04420971
0.04420971
0.04420971
0.04420971
0.04420971
0.04420971
0.04420971
0.04420971
0.04420971
0.04420971
0.04420971
0.04420971
0.04420971
0.04420971
0.04420971
0.04420971
0.04420971
0.04420971
0.04420971
0.04420971
0.04420971
0.04420971
0.04420971
0.04420971
0.04420971
0.04420971
0.04420971
0.04420971
0.04420971
0.04420971
0.04420971
0.04420971
0.04420971
0.04420971
0.04420971
0.04420971
0.04420971
0.04420971
0.04420971
0.04420971
0.04420971
0.04420971
0.04420971
0.04420971
0.04420971
0.04420971
0.04420971
0.04420971
0.04420971
0.04420971
0.04420971
0.04420971
0.04420971
0.04420971
0.04420971
0.04420971
0.04420971
0.04420971
0.04420971
0.04420971
0.04420971
0.04420971
0.04420971
0.04420971
0.04420971
0.04420971
0.04420971
0.04420971
0.04420971
0.04420971
0.04420971
0.04420971
0.04420971
0.04420971
0.04420971
0.04420971
0.04420971
0.04420971
0.04420971
0.04420971
0.04420971
0.04420971
0.04420971
0.04420971
0.04420971
0.04420971
0.04420971
0.04420971
0.04420971
0.04420971
0.04420971
0.04420971
0.04420971
0.04420971
0.04420971
0.04420971
0.04420971
0.04420971
0.04420971
0.04420971
0.04420971
0.04420971
0.04420971
0.04420971
0.04420971
0.04420971
0.04420971
0.04420971
0.04420971
0.04420971
0.04420971
0.04420971
0.04420971
0.04420971
0.04420971
0.04420971
0.04420971
0.04420971
0.04420971
0.04420971
0.04420971
0.04420971
0.04420971
0.04420971
0.04420971
0.04420971
0.04420971
0.04420971
0.04420971
0.04420971
0.04420971
0.04420971
0.04420971
0.04420971
0.04420971
0.04420971
0.04420971
0.04420971
0.04420971
0.04420971
0.04420971
0.04420971
0.04420971
0.04420971
0.04420971
0.04420971
0.04420971
0.04420971
0.04420971
0.04420971
0.04420971
0.04420971
0.04420971
0.04420971
0.04420971
0.04420971
0.04420971
0.04420971
0.04420971
0.04420971
0.04420971
0.04420971
0.04420971
0.04420971
0.04420971
0.04420971
0.04420971
0.04420971
0.04420971
0.04420971
0.04420971
0.04420971
0.04420971
0.04420971
0.04420971
0.04420971
0.04420971
0.04420971
0.04420971
0.04420971
0.04420971
0.04420971
0.04420971
0.04420971


VECTORS d1 FLOAT
0 -0.9999495 0.01005293
-0.07759111 -0.9968394 0.01705363
-0.1576071 -0.9872108 0.02397464
-0.2394149 -0.9704305 0.03074353
-0.3222505 -0.9459201 0.03728
-0.4052196 -0.913184 0.04349699
-0.4873051 -0.8718389 0.04930232
-0.5673809 -0.8216433 0.05460075
-0.6442338 -0.7625265 0.05929676
-0.7165928 -0.6946137 0.06329762
-0.7831659 -0.6182448 0.06651689
-0.8426827 -0.5339865 0.0688781
-0.893941 -0.4426339 0.07031833
-0.9358553 -0.3452005 0.07079152
-0.9675034 -0.2428972 0.0702713
-0.9881684 -0.1370996 0.06875296
-0.9973723 -0.02930476 0.06625448
-0.9948999 0.0789194 0.06281648
-0.9808087 0.1859893 0.05850103
-0.9554263 0.2903621 0.05338941
-0.9193346 0.3905894 0.04757891
-0.8733413 0.4853651 0.04117902
-0.8184425 0.5735634 0.03430715
-0.7557781 0.6542674 0.02708425
-0.6865847 0.7267848 0.01963054
-0.6121468 0.7906522 0.01206178
-0.533752 0.8456291 0.00448596
-0.452651 0.8916827 -0.002999198
-0.3700234 0.9289652 -0.01030797
-0.2869527 0.9577873 -0.0173676
-0.2044046 0.9785893 -0.02411896
-0.1232139 0.9919108 -0.03051658
-0.04409076 0.9983596 -0.03652683
0.03238492 0.9985872 -0.04212777
0.1057583 0.9932659 -0.04730781
0.1756901 0.9830678 -0.05206427
0.2419455 0.9686492 -0.05640188
0.3043814 0.9506377 -0.06033144
0.3629338 0.9296235 -0.06386845
0.4176052 0.9061526 -0.06703197
0.4684524 0.8807237 -0.06984352
0.5155755 0.8537862 -0.07232622
0.5591077 0.8257407 -0.07450403
0.5992071 0.7969403 -0.07640107
0.6360485 0.7676926 -0.07804123
0.6698176 0.7382631 -0.07944769
0.7007056 0.7088783 -0.08064271
0.7289048 0.679729 -0.08164737
0.7546055 0.6509742 -0.0824815
0.7779931 0.6227444 -0.08316357
0.7992465 0.5951449 -0.08371065
0.8185367 0.5682591 -0.08413844
0.8360255 0.542151 -0.08446131
0.8518653 0.5168682 -0.08469229
0.8661988 0.4924442 -0.08484323
0.8791589 0.4689003 -0.08492476
0.8908686 0.4462479 -0.08494648
0.901442 0.4244897 -0.08491695
0.9109836 0.4036215 -0.08484382
0.9195899 0.3836334 -0.08473388
0.9273489 0.3645107 -0.08459315
0.9343412 0.346235 -0.08442697
0.9406402 0.3287851 -0.08424002
0.9463129 0.3121376 -0.08403642
0.95142 0.2962672 -0.08381978
0.9560168 0.2811477 -0.08359322
0.9601534 0.2667522 -0.0833595
0.963875 0.253053 -0.08312096
0.9672228 0.2400228 -0.08287965
0.9702339 0.2276341 -0.08263732
0.9729417 0.2158597 -0.08239545
0.9753766 0.204673 -0.08215532
0.9775658 0.1940479 -0.08191798
0.979534 0.1839589 -0.08168433
0.9813034 0.1743812 -0.08145509
0.9828939 0.165291 -0.08123086
0.9843237 0.1566651 -0.08101214
0.9856089 0.1484812 -0.08079928
0.9867641 0.1407179 -0.08059258
0.9878024 0.1333546 -0.08039225
0.9887358 0.1263715 -0.08019843
0.9895747 0.1197499 -0.08001121
0.9903289 0.1134715 -0.07983062
0.9910068 0.1075192 -0.07965665
0.9916162 0.1018765 -0.07948926
0.992164 0.09652763 -0.07932839
0.9926565 0.09145763 -0.07917392
0.9930993 0.08665226 -0.07902576
0.9934975 0.08209792 -0.07888375
0.9938555 0.07778172 -0.07874775
0.9941775 0.07369136 -0.07861761
0.994467 0.06981518 -0.07849315
0.9947275 0.06614207 -0.07837421
0.9949617 0.06266151 -0.07826061
0.9951725 0.05936348 -0.07815216
0.9953621 0.05623847 -0.07804868
0.9955327 0.05327748 -0.07795
0.9956862 0.05047195 -0.07785594
0.9958244 0.04781374 -0.07776631
0.9959488 0.04529517 -0.07768095
0.9960608 0.04290891 -0.07759967
0.9961616 0.04064804 -0.07752232
0.9962525 0.03850599 -0.07744872
0.9963343 0.03647652 -0.07737871
0.996408 0.03455373 -0.07731215
0.9964744 0.032732 -0.07724887
0.9965343 0.03100604 -0.07718873
0.9965882 0.02937081 -0.0771316
0.9966369 0.02782153 -0.07707732
0.9966807 0.02635369 -0.07702578
0.9967203 0.02496299 -0.07697684
0.996756 0.02364537 -0.07693039
0.9967883 0.02239699 -0.0768863
0.9968174 0.02121418 -0.07684446
0.9968437 0.0200935 -0.07680477
0.9968674 0.01903166 -0.07676712
0.9968888 0.01802557 -0.07673141
0.9969082 0.01707227 -0.07669756
0.9969258 0.01616898 -0.07666546
0.9969416 0.01531305 -0.07663503
0.996956 0.01450198 -0.07660619
0.9969689 0.01373339 -0.07657886
0.9969807 0.01300503 -0.07655297
0.9969913 0.01231478 -0.07652844
0.997001 0.01166061 -0.0765052
0.9970097 0.01104059 -0.0764832
0.9970177 0.01045293 -0.07646236
0.9970249 0.009895895 -0.07644264
0.9970314 0.009367854 -0.07642396
0.9970373 0.008867262 -0.07640629
0.9970427 0.008392651 -0.07638957
0.9970476 0.007942633 -0.07637374
0.9970521 0.007515888 -0.07635878
0.9970561 0.007111167 -0.07634462
0.9970598 0.006727283 -0.07633123
0.9970632 0.006363112 -0.07631858
0.9970662 0.006017588 -0.07630662
0.997069 0.005689697 -0.07629532
0.9970716 0.005378479 -0.07628464
0.9970739 0.005083022 -0.07627456
0.997076 0.004802461 -0.07626504
0.997078 0.004535973 -0.07625606
0.9970797 0.004282778 -0.07624758
0.9970813 0.004042134 -0.07623959
0.9970828 0.003813335 -0.07623205
0.9970842 0.003595711 -0.07622495
0.9970854 0.003388624 -0.07621827
0.9970865 0.003191468 -0.07621197
0.9970876 0.003003665 -0.07620606
0.9970885 0.002824664 -0.0762005
0.9970894 0.002653942 -0.07619527
0.9970902 0.002490997 -0.07619038
0.9970909 0.002335352 -0.07618579
0.9970916 0.002186551 -0.07618149
0.9970922 0.002044158 -0.07617748
0.9970927 0.001907756 -0.07617373
0.9970932 0.001776945 -0.07617024
0.9970937 0.001651342 -0.076167
0.9970941 0.001530578 -0.07616399
0.9970945 0.0014143 -0.07616121
0.9970949 0.001302167 -0.07615865
0.9970952 0.00119385 -0.07615629
0.9970955 0.001089032 -0.07615414
0.9970957 0.0009874051 -0.07615219
0.9970959 0.0008886725 -0.07615042
0.9970961 0.0007925443 -0.07614884
0.9970963 0.0006987389 -0.07614744
0.9970965 0.0006069814 -0.07614621
0.9970966 0.0005170027 -0.07614515
0.9970967 0.0004285393 -0.07614426
0.9970968 0.0003413319 -0.07614353
0.9970969 0.0002551249 -0.07614297
0.9970969 0.0001696655 -0.07614257
0.997097 8.470351e-05 -0.07614232
0.997097 -1.025038e-08 -0.07614224
0.997097 -8.472401e-05 -0.07614231
0.9970969 -0.000169686 -0.07614254
0.9970969 -0.0002551454 -0.07614293
0.9970968 -0.0003413524 -0.07614348
0.9970967 -0.0004285598 -0.0761442
0.9970966 -0.0005170232 -0.07614507
0.9970965 -0.0006070019 -0.07614612
0.9970963 -0.0006987594 -0.07614733
0.9970962 -0.0007925648 -0.07614872
0.997096 -0.000888693 -0.07615029
0.9970957 -0.0009874256 -0.07615205
0.9970955 -0.001089052 -0.07615399
0.9970952 -0.00119387 -0.07615613
0.9970949 -0.001302187 -0.07615847
0.9970945 -0.00141432 -0.07616102
0.9970941 -0.001530599 -0.07616378
0.9970937 -0.001651362 -0.07616678
0.9970933 -0.001776966 -0.07617001
0.9970928 -0.001907777 -0.07617349
0.9970922 -0.002044179 -0.07617722
0.9970916 -0.002186572 -0.07618122
0.9970909 -0.002335372 -0.0761855