# vtk DataFile Version 2.0
Written badly by Kevin Korner
ASCII
DATASET POLYDATA
POINTS 350 FLOAT
0 0 0
0.00286533 0 0
0.005726747 -0.0001333553 6.795149e-05
0.008576003 -0.0004009022 0.0002103343
0.01140423 -0.0008026566 0.0004336241
0.01420197 -0.001337725 0.000744213
0.01695925 -0.002004221 0.001148322
0.01966564 -0.002799193 0.001651903
0.02231034 -0.003718555 0.002260543
0.02488229 -0.004757046 0.002979352
0.02737031 -0.005908192 0.003812859
0.0297632 -0.007164302 0.00476491
0.0320499 -0.00851648 0.005838559
0.03421967 -0.009954662 0.007035984
0.03626224 -0.01146769 0.008358398
0.03816796 -0.01304339 0.009805985
0.03992798 -0.01466872 0.01137785
0.04153439 -0.01632988 0.01307199
0.04298038 -0.0180125 0.01488528
0.04426032 -0.01970181 0.01681351
0.04536993 -0.02138286 0.01885139
0.04630625 -0.02304068 0.02099266
0.0470678 -0.02466053 0.02323013
0.04765449 -0.02622807 0.0255558
0.04806768 -0.02772955 0.02796099
0.0483101 -0.02915201 0.03043646
0.04838578 -0.0304834 0.03297255
0.04829997 -0.03171273 0.03555935
0.04805901 -0.03283015 0.03818678
0.04767021 -0.03382707 0.04084481
0.04714169 -0.03469614 0.04352352
0.04648223 -0.03543134 0.04621326
0.04570116 -0.03602791 0.04890476
0.04480815 -0.03648236 0.05158918
0.0438131 -0.03679241 0.05425824
0.04272599 -0.0369569 0.05690422
0.04155679 -0.03697576 0.05952008
0.04031528 -0.03684985 0.06209941
0.03901103 -0.03658091 0.06463648
0.03765326 -0.03617145 0.06712624
0.0362508 -0.03562463 0.06956432
0.03481204 -0.03494419 0.07194698
0.03334486 -0.03413432 0.07427111
0.03185663 -0.03319958 0.0765342
0.03035419 -0.03214481 0.07873425
0.02884383 -0.03097507 0.08086982
0.02733129 -0.02969556 0.08293989
0.02582181 -0.02831154 0.0849439
0.02432007 -0.02682829 0.08688165
0.02283029 -0.02525105 0.08875328
0.0213562 -0.02358502 0.09055923
0.01990106 -0.02183525 0.09230021
0.01846775 -0.02000668 0.09397713
0.01705872 -0.01810411 0.09559112
0.01567607 -0.01613214 0.09714345
0.01432157 -0.01409519 0.09863552
0.01299667 -0.01199749 0.1000688
0.01170254 -0.009843078 0.101445
0.01044011 -0.007635776 0.1027657
0.009210062 -0.00537921 0.1040326
0.008012883 -0.003076804 0.1052474
0.006848871 -0.0007317853 0.1064119
0.005718163 0.00165281 0.1075279
0.004620752 0.004074134 0.108597
0.003556502 0.006529515 0.109621
0.002525167 0.009016456 0.1106016
0.001526405 0.01153262 0.1115405
0.0005597916 0.01407584 0.1124392
-0.0003751696 0.01664408 0.1132995
-0.001279034 0.01923545 0.1141229
-0.002152406 0.02184821 0.1149108
-0.002995933 0.02448071 0.1156648
-0.003810294 0.02713144 0.1163863
-0.004596196 0.02979901 0.1170766
-0.005354363 0.03248211 0.1177371
-0.006085537 0.03517954 0.1183691
-0.006790466 0.03789018 0.1189738
-0.007469907 0.04061301 0.1195523
-0.008124615 0.04334706 0.1201058
-0.008755346 0.04609147 0.1206355
-0.00936285 0.04884541 0.1211423
-0.00994787 0.05160813 0.1216273
-0.01051114 0.05437895 0.1220914
-0.01105339 0.05715722 0.1225356
-0.01157532 0.05994236 0.1229607
-0.01207763 0.06273381 0.1233676
-0.01256101 0.06553109 0.1237572
-0.01302612 0.06833372 0.12413
-0.01347361 0.07114128 0.124487
-0.01390412 0.07395338 0.1248289
-0.01431827 0.07676967 0.1251562
-0.01471665 0.0795898 0.1254697
-0.01509985 0.08241347 0.1257699
-0.01546843 0.0852404 0.1260575
-0.01582294 0.08807034 0.126333
-0.01616391 0.09090303 0.126597
-0.01649185 0.09373828 0.1268499
-0.01680725 0.09657586 0.1270923
-0.01711059 0.0994156 0.1273246
-0.01740234 0.1022573 0.1275473
-0.01768293 0.1051009 0.1277607
-0.01795279 0.1079461 0.1279654
-0.01821233 0.1107929 0.1281616
-0.01846196 0.1136412 0.1283498
-0.01870204 0.1164907 0.1285302
-0.01893296 0.1193415 0.1287033
-0.01915505 0.1221933 0.1288693
-0.01936866 0.1250463 0.1290286
-0.01957411 0.1279001 0.1291814
-0.01977172 0.1307549 0.129328
-0.01996178 0.1336104 0.1294686
-0.02014458 0.1364667 0.1296036
-0.0203204 0.1393237 0.1297332
-0.02048949 0.1421814 0.1298575
-0.02065213 0.1450396 0.1299768
-0.02080854 0.1478983 0.1300914
-0.02095896 0.1507576 0.1302013
-0.02110362 0.1536173 0.1303068
-0.02124272 0.1564775 0.1304081
-0.02137649 0.159338 0.1305053
-0.0215051 0.162199 0.1305986
-0.02162877 0.1650602 0.1306882
-0.02174765 0.1679218 0.1307742
-0.02186194 0.1707837 0.1308567
-0.02197179 0.1736458 0.1309359
-0.02207738 0.1765082 0.1310119
-0.02217884 0.1793708 0.1310849
-0.02227633 0.1822336 0.1311549
-0.02237 0.1850966 0.131222
-0.02245997 0.1879598 0.1312865
-0.02254638 0.1908231 0.1313483
-0.02262935 0.1936867 0.1314075
-0.02270901 0.1965503 0.1314643
-0.02278546 0.1994141 0.1315188
-0.02285882 0.202278 0.131571
-0.0229292 0.205142 0.1316211
-0.02299669 0.2080062 0.131669
-0.02306139 0.2108704 0.1317149
-0.0231234 0.2137347 0.1317589
-0.0231828 0.2165991 0.131801
-0.02323968 0.2194636 0.1318412
-0.02329412 0.2223282 0.1318797
-0.0233462 0.2251928 0.1319165
-0.02339599 0.2280575 0.1319517
-0.02344357 0.2309222 0.1319852
-0.023489 0.233787 0.1320172
-0.02353235 0.2366518 0.1320478
-0.02357368 0.2395167 0.1320769
-0.02361304 0.2423816 0.1321045
-0.02365051 0.2452466 0.1321309
-0.02368612 0.2481116 0.1321559
-0.02371993 0.2509766 0.1321796
-0.02375199 0.2538417 0.1322021
-0.02378235 0.2567068 0.1322234
-0.02381104 0.2595719 0.1322435
-0.02383811 0.262437 0.1322625
-0.0238636 0.2653022 0.1322803
-0.02388754 0.2681674 0.1322971
-0.02390996 0.2710326 0.1323128
-0.02393091 0.2738978 0.1323274
-0.02395041 0.276763 0.132341
-0.02396848 0.2796283 0.1323537
-0.02398516 0.2824935 0.1323653
-0.02400047 0.2853588 0.132376
-0.02401442 0.2882241 0.1323858
-0.02402705 0.2910894 0.1323946
-0.02403836 0.2939547 0.1324025
-0.02404837 0.29682 0.1324094
-0.0240571 0.2996853 0.1324155
-0.02406456 0.3025506 0.1324207
-0.02407076 0.3054159 0.1324251
-0.02407571 0.3082812 0.1324285
-0.02407942 0.3111466 0.1324311
-0.02408188 0.3140119 0.1324328
-0.02408312 0.3168772 0.1324337
-0.02408312 0.3197426 0.1324337
-0.02408188 0.3226079 0.1324328
-0.02407942 0.3254732 0.1324311
-0.02407571 0.3283385 0.1324285
-0.02407076 0.3312039 0.1324251
-0.02406456 0.3340692 0.1324207
-0.0240571 0.3369345 0.1324155
-0.02404837 0.3397998 0.1324094
-0.02403836 0.3426651 0.1324025
-0.02402705 0.3455304 0.1323946
-0.02401442 0.3483957 0.1323858
-0.02400047 0.351261 0.132376
-0.02398516 0.3541262 0.1323653
-0.02396848 0.3569915 0.1323537
-0.02395041 0.3598567 0.132341
-0.02393091 0.362722 0.1323274
-0.02390996 0.3655872 0.1323128
-0.02388754 0.3684524 0.1322971
-0.0238636 0.3713176 0.1322803
-0.02383811 0.3741827 0.1322625
-0.02381104 0.3770479 0.1322435
-0.02378235 0.379913 0.1322234
-0.02375199 0.3827781 0.1322021
-0.02371993 0.3856431 0.1321796
-0.02368612 0.3885082 0.1321559
-0.02365051 0.3913732 0.1321309
-0.02361304 0.3942381 0.1321045
-0.02357368 0.397103 0.1320769
-0.02353235 0.3999679 0.1320478
-0.023489 0.4028328 0.1320172
-0.02344357 0.4056976 0.1319852
-0.02339599 0.4085623 0.1319517
-0.0233462 0.411427 0.1319165
-0.02329412 0.4142916 0.1318797
-0.02323968 0.4171562 0.1318412
-0.0231828 0.4200206 0.131801
-0.0231234 0.422885 0.1317589
-0.02306139 0.4257494 0.1317149
-0.02299669 0.4286136 0.131669
-0.0229292 0.4314777 0.1316211
-0.02285882 0.4343418 0.131571
-0.02278546 0.4372057 0.1315188
-0.02270901 0.4400695 0.1314643
-0.02262935 0.4429331 0.1314075
-0.02254638 0.4457966 0.1313482
-0.02245997 0.44866 0.1312865
-0.02237 0.4515232 0.131222
-0.02227633 0.4543862 0.1311549
-0.02217884 0.457249 0.1310849
-0.02207738 0.4601116 0.1310119
-0.02197179 0.462974 0.1309359
-0.02186194 0.4658361 0.1308567
-0.02174765 0.468698 0.1307742
-0.02162877 0.4715595 0.1306882
-0.0215051 0.4744208 0.1305986
-0.02137649 0.4772817 0.1305053
-0.02124272 0.4801423 0.1304081
-0.02110361 0.4830024 0.1303068
-0.02095896 0.4858622 0.1302013
-0.02080854 0.4887214 0.1300914
-0.02065213 0.4915802 0.1299768
-0.02048949 0.4944384 0.1298575
-0.02032039 0.497296 0.1297332
-0.02014458 0.500153 0.1296036
-0.01996178 0.5030093 0.1294686
-0.01977172 0.5058649 0.129328
-0.01957411 0.5087196 0.1291814
-0.01936866 0.5115735 0.1290286
-0.01915505 0.5144264 0.1288693
-0.01893295 0.5172783 0.1287033
-0.01870204 0.5201291 0.1285302
-0.01846196 0.5229786 0.1283498
-0.01821233 0.5258268 0.1281616
-0.01795279 0.5286736 0.1279654
-0.01768292 0.5315189 0.1277607
-0.01740234 0.5343624 0.1275473
-0.01711059 0.5372042 0.1273246
-0.01680725 0.5400439 0.1270923
-0.01649185 0.5428815 0.1268499
-0.01616391 0.5457167 0.126597
-0.01582294 0.5485494 0.126333
-0.01546843 0.5513794 0.1260575
-0.01509985 0.5542063 0.1257699
-0.01471665 0.55703 0.1254697
-0.01431827 0.5598501 0.1251562
-0.01390412 0.5626664 0.1248289
-0.01347361 0.5654785 0.124487
-0.01302612 0.5682861 0.12413
-0.01256101 0.5710887 0.1237572
-0.01207763 0.573886 0.1233676
-0.01157531 0.5766774 0.1229607
-0.01105339 0.5794625 0.1225356
-0.01051114 0.5822408 0.1220914
-0.00994787 0.5850116 0.1216273
-0.00936285 0.5877744 0.1211423
-0.008755346 0.5905283 0.1206355
-0.008124615 0.5932727 0.1201058
-0.007469907 0.5960068 0.1195523
-0.006790466 0.5987296 0.1189738
-0.006085536 0.6014402 0.1183691
-0.005354363 0.6041377 0.1177371
-0.004596195 0.6068208 0.1170766
-0.003810294 0.6094883 0.1163863
-0.002995933 0.6121391 0.1156648
-0.002152406 0.6147716 0.1149108
-0.001279033 0.6173843 0.1141229
-0.0003751693 0.6199757 0.1132995
0.0005597919 0.6225439 0.1124392
0.001526406 0.6250871 0.1115405
0.002525167 0.6276033 0.1106016
0.003556502 0.6300903 0.109621
0.004620752 0.6325456 0.108597
0.005718164 0.634967 0.1075279
0.006848871 0.6373516 0.1064119
0.008012883 0.6396966 0.1052474
0.009210062 0.641999 0.1040326
0.01044011 0.6442555 0.1027657
0.01170254 0.6464628 0.101445
0.01299667 0.6486173 0.1000688
0.01432157 0.650715 0.09863552
0.01567607 0.6527519 0.09714345
0.01705872 0.6547239 0.09559112
0.01846775 0.6566265 0.09397713
0.01990106 0.658455 0.09230021
0.0213562 0.6602048 0.09055923
0.02283029 0.6618708 0.08875328
0.02432007 0.6634481 0.08688165
0.02582181 0.6649313 0.0849439
0.02733129 0.6663153 0.08293989
0.02884383 0.6675948 0.08086982
0.03035419 0.6687646 0.07873425
0.03185663 0.6698193 0.0765342
0.03334486 0.6707541 0.07427111
0.03481204 0.671564 0.07194698
0.0362508 0.6722444 0.06956432
0.03765326 0.6727912 0.06712624
0.03901103 0.6732007 0.06463648
0.04031528 0.6734696 0.06209941
0.04155679 0.6735955 0.05952008
0.04272599 0.6735767 0.05690422
0.0438131 0.6734122 0.05425824
0.04480815 0.6731021 0.05158918
0.04570116 0.6726477 0.04890476
0.04648223 0.6720511 0.04621326
0.04714169 0.6713159 0.04352352
0.04767021 0.6704468 0.04084481
0.04805901 0.6694499 0.03818678
0.04829997 0.6683325 0.03555935
0.04838578 0.6671032 0.03297255
0.0483101 0.6657718 0.03043646
0.04806768 0.6643493 0.02796099
0.04765449 0.6628478 0.0255558
0.0470678 0.6612803 0.02323013
0.04630625 0.6596605 0.02099266
0.04536993 0.6580026 0.01885139
0.04426032 0.6563216 0.01681351
0.04298038 0.6546323 0.01488528
0.04153439 0.6529497 0.01307199
0.03992798 0.6512885 0.01137785
0.03816796 0.6496632 0.009805985
0.03626224 0.6480875 0.008358398
0.03421967 0.6465744 0.007035984
0.0320499 0.6451363 0.005838559
0.0297632 0.6437841 0.00476491
0.02737031 0.642528 0.003812859
0.02488229 0.6413768 0.002979352
0.02231034 0.6403383 0.002260543
0.01966564 0.639419 0.001651903
0.01695925 0.638624 0.001148322
0.01420197 0.6379575 0.000744213
0.01140423 0.6374224 0.0004336241
0.008576003 0.6370207 0.0002103343
0.005726747 0.6367531 6.795149e-05
0.00286533 0.6366198 0
0 0.6366198 0

LINES 349 1047
2 0 1
2 1 2
2 2 3
2 3 4
2 4 5
2 5 6
2 6 7
2 7 8
2 8 9
2 9 10
2 10 11
2 11 12
2 12 13
2 13 14
2 14 15
2 15 16
2 16 17
2 17 18
2 18 19
2 19 20
2 20 21
2 21 22
2 22 23
2 23 24
2 24 25
2 25 26
2 26 27
2 27 28
2 28 29
2 29 30
2 30 31
2 31 32
2 32 33
2 33 34
2 34 35
2 35 36
2 36 37
2 37 38
2 38 39
2 39 40
2 40 41
2 41 42
2 42 43
2 43 44
2 44 45
2 45 46
2 46 47
2 47 48
2 48 49
2 49 50
2 50 51
2 51 52
2 52 53
2 53 54
2 54 55
2 55 56
2 56 57
2 57 58
2 58 59
2 59 60
2 60 61
2 61 62
2 62 63
2 63 64
2 64 65
2 65 66
2 66 67
2 67 68
2 68 69
2 69 70
2 70 71
2 71 72
2 72 73
2 73 74
2 74 75
2 75 76
2 76 77
2 77 78
2 78 79
2 79 80
2 80 81
2 81 82
2 82 83
2 83 84
2 84 85
2 85 86
2 86 87
2 87 88
2 88 89
2 89 90
2 90 91
2 91 92
2 92 93
2 93 94
2 94 95
2 95 96
2 96 97
2 97 98
2 98 99
2 99 100
2 100 101
2 101 102
2 102 103
2 103 104
2 104 105
2 105 106
2 106 107
2 107 108
2 108 109
2 109 110
2 110 111
2 111 112
2 112 113
2 113 114
2 114 115
2 115 116
2 116 117
2 117 118
2 118 119
2 119 120
2 120 121
2 121 122
2 122 123
2 123 124
2 124 125
2 125 126
2 126 127
2 127 128
2 128 129
2 129 130
2 130 131
2 131 132
2 132 133
2 133 134
2 134 135
2 135 136
2 136 137
2 137 138
2 138 139
2 139 140
2 140 141
2 141 142
2 142 143
2 143 144
2 144 145
2 145 146
2 146 147
2 147 148
2 148 149
2 149 150
2 150 151
2 151 152
2 152 153
2 153 154
2 154 155
2 155 156
2 156 157
2 157 158
2 158 159
2 159 160
2 160 161
2 161 162
2 162 163
2 163 164
2 164 165
2 165 166
2 166 167
2 167 168
2 168 169
2 169 170
2 170 171
2 171 172
2 172 173
2 173 174
2 174 175
2 175 176
2 176 177
2 177 178
2 178 179
2 179 180
2 180 181
2 181 182
2 182 183
2 183 184
2 184 185
2 185 186
2 186 187
2 187 188
2 188 189
2 189 190
2 190 191
2 191 192
2 192 193
2 193 194
2 194 195
2 195 196
2 196 197
2 197 198
2 198 199
2 199 200
2 200 201
2 201 202
2 202 203
2 203 204
2 204 205
2 205 206
2 206 207
2 207 208
2 208 209
2 209 210
2 210 211
2 211 212
2 212 213
2 213 214
2 214 215
2 215 216
2 216 217
2 217 218
2 218 219
2 219 220
2 220 221
2 221 222
2 222 223
2 223 224
2 224 225
2 225 226
2 226 227
2 227 228
2 228 229
2 229 230
2 230 231
2 231 232
2 232 233
2 233 234
2 234 235
2 235 236
2 236 237
2 237 238
2 238 239
2 239 240
2 240 241
2 241 242
2 242 243
2 243 244
2 244 245
2 245 246
2 246 247
2 247 248
2 248 249
2 249 250
2 250 251
2 251 252
2 252 253
2 253 254
2 254 255
2 255 256
2 256 257
2 257 258
2 258 259
2 259 260
2 260 261
2 261 262
2 262 263
2 263 264
2 264 265
2 265 266
2 266 267
2 267 268
2 268 269
2 269 270
2 270 271
2 271 272
2 272 273
2 273 274
2 274 275
2 275 276
2 276 277
2 277 278
2 278 279
2 279 280
2 280 281
2 281 282
2 282 283
2 283 284
2 284 285
2 285 286
2 286 287
2 287 288
2 288 289
2 289 290
2 290 291
2 291 292
2 292 293
2 293 294
2 294 295
2 295 296
2 296 297
2 297 298
2 298 299
2 299 300
2 300 301
2 301 302
2 302 303
2 303 304
2 304 305
2 305 306
2 306 307
2 307 308
2 308 309
2 309 310
2 310 311
2 311 312
2 312 313
2 313 314
2 314 315
2 315 316
2 316 317
2 317 318
2 318 319
2 319 320
2 320 321
2 321 322
2 322 323
2 323 324
2 324 325
2 325 326
2 326 327
2 327 328
2 328 329
2 329 330
2 330 331
2 331 332
2 332 333
2 333 334
2 334 335
2 335 336
2 336 337
2 337 338
2 338 339
2 339 340
2 340 341
2 341 342
2 342 343
2 343 344
2 344 345
2 345 346
2 346 347
2 347 348
2 348 349


POINT_DATA 350
SCALARS a FLOAT 1
LOOKUP_TABLE default
0.0005894628
0.0005894628
0.0005894628
0.0005894628
0.0005894628
0.0005894628
0.0005894628
0.0005894628
0.0005894628
0.0005894628
0.0005894628
0.0005894628
0.0005894628
0.0005894628
0.0005894628
0.0005894628
0.0005894628
0.0005894628
0.0005894628
0.0005894628
0.0005894628
0.0005894628
0.0005894628
0.0005894628
0.0005894628
0.0005894628
0.0005894628
0.0005894628
0.0005894628
0.0005894628
0.0005894628
0.0005894628
0.0005894628
0.0005894628
0.0005894628
0.0005894628
0.0005894628
0.0005894628
0.0005894628
0.0005894628
0.0005894628
0.0005894628
0.0005894628
0.0005894628
0.0005894628
0.0005894628
0.0005894628
0.0005894628
0.0005894628
0.0005894628
0.0005894628
0.0005894628
0.0005894628
0.0005894628
0.0005894628
0.0005894628
0.0005894628
0.0005894628
0.0005894628
0.0005894628
0.0005894628
0.0005894628
0.0005894628
0.0005894628
0.0005894628
0.0005894628
0.0005894628
0.0005894628
0.0005894628
0.0005894628
0.0005894628
0.0005894628
0.0005894628
0.0005894628
0.0005894628
0.0005894628
0.0005894628
0.0005894628
0.0005894628
0.0005894628
0.0005894628
0.0005894628
0.0005894628
0.0005894628
0.0005894628
0.0005894628
0.0005894628
0.0005894628
0.0005894628
0.0005894628
0.0005894628
0.0005894628
0.0005894628
0.0005894628
0.0005894628
0.0005894628
0.0005894628
0.0005894628
0.0005894628
0.0005894628
0.0005894628
0.0005894628
0.0005894628
0.0005894628
0.0005894628
0.0005894628
0.0005894628
0.0005894628
0.0005894628
0.0005894628
0.0005894628
0.0005894628
0.0005894628
0.0005894628
0.0005894628
0.0005894628
0.0005894628
0.0005894628
0.0005894628
0.0005894628
0.0005894628
0.0005894628
0.0005894628
0.0005894628
0.0005894628
0.0005894628
0.0005894628
0.0005894628
0.0005894628
0.0005894628
0.0005894628
0.0005894628
0.0005894628
0.0005894628
0.0005894628
0.0005894628
0.0005894628
0.0005894628
0.0005894628
0.0005894628
0.0005894628
0.0005894628
0.0005894628
0.0005894628
0.0005894628
0.0005894628
0.0005894628
0.0005894628
0.0005894628
0.0005894628
0.0005894628
0.0005894628
0.0005894628
0.0005894628
0.0005894628
0.0005894628
0.0005894628
0.0005894628
0.0005894628
0.0005894628
0.0005894628
0.0005894628
0.0005894628
0.0005894628
0.0005894628
0.0005894628
0.0005894628
0.0005894628
0.0005894628
0.0005894628
0.0005894628
0.0005894628
0.0005894628
0.0005894628
0.0005894628
0.0005894628
0.0005894628
0.0005894628
0.0005894628
0.0005894628
0.0005894628
0.0005894628
0.0005894628
0.0005894628
0.0005894628
0.0005894628
0.0005894628
0.0005894628
0.0005894628
0.0005894628
0.0005894628
0.0005894628
0.0005894628
0.0005894628
0.0005894628
0.0005894628
0.0005894628
0.0005894628
0.0005894628
0.0005894628
0.0005894628
0.0005894628
0.0005894628
0.0005894628
0.0005894628
0.0005894628
0.0005894628
0.0005894628
0.0005894628
0.0005894628
0.0005894628
0.0005894628
0.0005894628
0.0005894628
0.0005894628
0.0005894628
0.0005894628
0.0005894628
0.0005894628
0.0005894628
0.0005894628
0.0005894628
0.0005894628
0.0005894628
0.0005894628
0.0005894628
0.0005894628
0.0005894628
0.0005894628
0.0005894628
0.0005894628
0.0005894628
0.0005894628
0.0005894628
0.0005894628
0.0005894628
0.0005894628
0.0005894628
0.0005894628
0.0005894628
0.0005894628
0.0005894628
0.0005894628
0.0005894628
0.0005894628
0.0005894628
0.0005894628
0.0005894628
0.0005894628
0.0005894628
0.0005894628
0.0005894628
0.0005894628
0.0005894628
0.0005894628
0.0005894628
0.0005894628
0.0005894628
0.0005894628
0.0005894628
0.0005894628
0.0005894628
0.0005894628
0.0005894628
0.0005894628
0.0005894628
0.0005894628
0.0005894628
0.0005894628
0.0005894628
0.0005894628
0.0005894628
0.0005894628
0.0005894628
0.0005894628
0.0005894628
0.0005894628
0.0005894628
0.0005894628
0.0005894628
0.0005894628
0.0005894628
0.0005894628
0.0005894628
0.0005894628
0.0005894628
0.0005894628
0.0005894628
0.0005894628
0.0005894628
0.0005894628
0.0005894628
0.0005894628
0.0005894628
0.0005894628
0.0005894628
0.0005894628
0.0005894628
0.0005894628
0.0005894628
0.0005894628
0.0005894628
0.0005894628
0.0005894628
0.0005894628
0.0005894628
0.0005894628
0.0005894628
0.0005894628
0.0005894628
0.0005894628
0.0005894628
0.0005894628
0.0005894628
0.0005894628
0.0005894628
0.0005894628
0.0005894628
0.0005894628
0.0005894628
0.0005894628
0.0005894628
0.0005894628
0.0005894628
0.0005894628
0.0005894628
0.0005894628
0.0005894628
0.0005894628
0.0005894628
0.0005894628
0.0005894628
0.0005894628
0.0005894628
0.0005894628
0.0005894628
0.0005894628
0.0005894628
0.0005894628
0.0005894628
0.0005894628
0.0005894628
0.0005894628
0.0005894628
0.0005894628
0.0005894628
0.0005894628
0.0005894628
0.0005894628
0.0005894628


SCALARS b FLOAT 1
LOOKUP_TABLE default
0.04420971
0.04420971
0.04420971
0.04420971
0.04420971
0.04420971
0.04420971
0.04420971
0.04420971
0.04420971
0.04420971
0.04420971
0.04420971
0.04420971
0.04420971
0.04420971
0.04420971
0.04420971
0.04420971
0.04420971
0.04420971
0.04420971
0.04420971
0.04420971
0.04420971
0.04420971
0.04420971
0.04420971
0.04420971
0.04420971
0.04420971
0.04420971
0.04420971
0.04420971
0.04420971
0.04420971
0.04420971
0.04420971
0.04420971
0.04420971
0.04420971
0.04420971
0.04420971
0.04420971
0.04420971
0.04420971
0.04420971
0.04420971
0.04420971
0.04420971
0.04420971
0.04420971
0.04420971
0.04420971
0.04420971
0.04420971
0.04420971
0.04420971
0.04420971
0.04420971
0.04420971
0.04420971
0.04420971
0.04420971
0.04420971
0.04420971
0.04420971
0.04420971
0.04420971
0.04420971
0.04420971
0.04420971
0.04420971
0.04420971
0.04420971
0.04420971
0.04420971
0.04420971
0.04420971
0.04420971
0.04420971
0.04420971
0.04420971
0.04420971
0.04420971
0.04420971
0.04420971
0.04420971
0.04420971
0.04420971
0.04420971
0.04420971
0.04420971
0.04420971
0.04420971
0.04420971
0.04420971
0.04420971
0.04420971
0.04420971
0.04420971
0.04420971
0.04420971
0.04420971
0.04420971
0.04420971
0.04420971
0.04420971
0.04420971
0.04420971
0.04420971
0.04420971
0.04420971
0.04420971
0.04420971
0.04420971
0.04420971
0.04420971
0.04420971
0.04420971
0.04420971
0.04420971
0.04420971
0.04420971
0.04420971
0.04420971
0.04420971
0.04420971
0.04420971
0.04420971
0.04420971
0.04420971
0.04420971
0.04420971
0.04420971
0.04420971
0.04420971
0.04420971
0.04420971
0.04420971
0.04420971
0.04420971
0.04420971
0.04420971
0.04420971
0.04420971
0.04420971
0.04420971
0.04420971
0.04420971
0.04420971
0.04420971
0.04420971
0.04420971
0.04420971
0.04420971
0.04420971
0.04420971
0.04420971
0.04420971
0.04420971
0.04420971
0.04420971
0.04420971
0.04420971
0.04420971
0.04420971
0.04420971
0.04420971
0.04420971
0.04420971
0.04420971
0.04420971
0.04420971
0.04420971
0.04420971
0.04420971
0.04420971
0.04420971
0.04420971
0.04420971
0.04420971
0.04420971
0.04420971
0.04420971
0.04420971
0.04420971
0.04420971
0.04420971
0.04420971
0.04420971
0.04420971
0.04420971
0.04420971
0.04420971
0.04420971
0.04420971
0.04420971
0.04420971
0.04420971
0.04420971
0.04420971
0.04420971
0.04420971
0.04420971
0.04420971
0.04420971
0.04420971
0.04420971
0.04420971
0.04420971
0.04420971
0.04420971
0.04420971
0.04420971
0.04420971
0.04420971
0.04420971
0.04420971
0.04420971
0.04420971
0.04420971
0.04420971
0.04420971
0.04420971
0.04420971
0.04420971
0.04420971
0.04420971
0.04420971
0.04420971
0.04420971
0.04420971
0.04420971
0.04420971
0.04420971
0.04420971
0.04420971
0.04420971
0.04420971
0.04420971
0.04420971
0.04420971
0.04420971
0.04420971
0.04420971
0.04420971
0.04420971
0.04420971
0.04420971
0.04420971
0.04420971
0.04420971
0.04420971
0.04420971
0.04420971
0.04420971
0.04420971
0.04420971
0.04420971
0.04420971
0.04420971
0.04420971
0.04420971
0.04420971
0.04420971
0.04420971
0.04420971
0.04420971
0.04420971
0.04420971
0.04420971
0.04420971
0.04420971
0.04420971
0.04420971
0.04420971
0.04420971
0.04420971
0.04420971
0.04420971
0.04420971
0.04420971
0.04420971
0.04420971
0.04420971
0.04420971
0.04420971
0.04420971
0.04420971
0.04420971
0.04420971
0.04420971
0.04420971
0.04420971
0.04420971
0.04420971
0.04420971
0.04420971
0.04420971
0.04420971
0.04420971
0.04420971
0.04420971
0.04420971
0.04420971
0.04420971
0.04420971
0.04420971
0.04420971
0.04420971
0.04420971
0.04420971
0.04420971
0.04420971
0.04420971
0.04420971
0.04420971
0.04420971
0.04420971
0.04420971
0.04420971
0.04420971
0.04420971
0.04420971
0.04420971
0.04420971
0.04420971
0.04420971
0.04420971
0.04420971
0.04420971
0.04420971
0.04420971
0.04420971
0.04420971
0.04420971
0.04420971
0.04420971
0.04420971
0.04420971
0.04420971
0.04420971
0.04420971
0.04420971
0.04420971
0.04420971
0.04420971
0.04420971
0.04420971


VECTORS d1 FLOAT
0 -0.8987175 0.438528
-0.05222682 -0.8817317 0.4688514
-0.1057081 -0.8608189 0.4978118
-0.1601877 -0.8358145 0.5251229
-0.2153714 -0.8065844 0.5504877
-0.2709268 -0.7730319 0.573603
-0.3264853 -0.735103 0.594164
-0.3816448 -0.6927933 0.6118698
-0.4359738 -0.6461523 0.6264296
-0.4890166 -0.5952887 0.6375689
-0.5403 -0.5403733 0.6450369
-0.5893411 -0.4816412 0.648613
-0.6356562 -0.419392 0.6481139
-0.6787703 -0.3539887 0.6433995
-0.7182277 -0.2858539 0.6343788
-0.7536018 -0.215465 0.6210146
-0.7845058 -0.1433465 0.6033261
-0.8106018 -0.07006115 0.5813915
-0.8316096 0.003800174 0.5553476
-0.8473136 0.07763057 0.5253885
-0.8575682 0.1508192 0.4917624
-0.8623014 0.2227639 0.4547665
-0.8615156 0.2928838 0.4147408
-0.8552873 0.3606305 0.3720609
-0.8437636 0.4254991 0.3271293
-0.8271575 0.487037 0.2803666
-0.8057415 0.544851 0.2322025
-0.7798391 0.5986129 0.1830671
-0.7498166 0.6480621 0.1333818
-0.7160728 0.693007 0.08355233
-0.6790301 0.7333244 0.03396187
-0.6391242 0.7689566 -0.01503469
-0.5967956 0.7999072 -0.06311492
-0.5524807 0.8262365 -0.109992
-0.5066052 0.8480548 -0.1554166
-0.4595767 0.8655158 -0.1991777
-0.4117804 0.8788098 -0.241102
-0.3635747 0.8881567 -0.2810536
-0.3152883 0.8937988 -0.3189311
-0.2672183 0.8959946 -0.3546661
-0.2196294 0.895013 -0.3882198
-0.1727536 0.8911276 -0.4195805
-0.126791 0.8846121 -0.4487599
-0.08191115 0.8757365 -0.4757901
-0.03825411 0.8647634 -0.5007205
0.004067098 0.8519455 -0.5236146
0.04496455 0.8375238 -0.5445476
0.08437305 0.8217253 -0.5636033
0.1222479 0.8047627 -0.5808721
0.1585623 0.7868334 -0.5964488
0.1933056 0.7681192 -0.6104309
0.2264805 0.7487865 -0.6229168
0.2581016 0.7289866 -0.6340048
0.2881934 0.7088561 -0.6437916
0.3167881 0.6885174 -0.6523719
0.3439247 0.6680797 -0.6598373
0.3696476 0.6476395 -0.666276
0.3940047 0.6272818 -0.6717721
0.417047 0.6070807 -0.6764058
0.4388276 0.5871003 -0.6802525
0.4594007 0.5673956 -0.6833837
0.4788208 0.5480133 -0.6858659
0.4971425 0.5289927 -0.6877616
0.51442 0.5103662 -0.6891287
0.5307062 0.4921603 -0.6900211
0.5460533 0.4743959 -0.6904885
0.5605115 0.4570894 -0.6905767
0.5741297 0.4402526 -0.690328
0.5869549 0.4238938 -0.6897811
0.5990322 0.4080181 -0.6889715
0.6104048 0.3926275 -0.6879314
0.621114 0.3777217 -0.6866904
0.6311989 0.3632983 -0.6852753
0.6406969 0.349353 -0.6837105
0.6496433 0.3358799 -0.6820178
0.6580716 0.322872 -0.6802172
0.6660135 0.310321 -0.6783266
0.6734987 0.2982178 -0.6763621
0.6805554 0.2865527 -0.6743381
0.6872102 0.2753151 -0.6722676
0.693488 0.2644941 -0.6701621
0.6994123 0.2540787 -0.6680318
0.705005 0.2440573 -0.6658859
0.7102868 0.2344184 -0.6637324
0.7152772 0.2251502 -0.6615783
0.7199943 0.216241 -0.65943
0.7244552 0.2076792 -0.6572929
0.7286759 0.1994532 -0.6551717
0.7326712 0.1915514 -0.6530705
0.7364551 0.1839626 -0.6509928
0.7400408 0.1766756 -0.6489417
0.7434404 0.1696795 -0.6469198
0.7466655 0.1629634 -0.6449291
0.7497266 0.1565169 -0.6429716
0.7526338 0.1503298 -0.6410486
0.7553963 0.144392 -0.6391614
0.758023 0.1386938 -0.6373109
0.7605218 0.1332256 -0.6354979
0.7629003 0.1279784 -0.6337229
0.7651656 0.1229431 -0.6319862
0.7673243 0.1181112 -0.6302881
0.7693825 0.1134743 -0.6286288
0.7713459 0.1090242 -0.6270082
0.7732198 0.1047532 -0.6254262
0.7750091 0.1006538 -0.6238827
0.7767186 0.09671867 -0.6223775
0.7783524 0.09294091 -0.6209103
0.7799145 0.0893138 -0.6194807
0.7814088 0.0858309 -0.6180885
0.7828386 0.08248603 -0.6167331
0.7842073 0.07927327 -0.6154143
0.7855177 0.07618696 -0.6141314
0.7867729 0.07322166 -0.6128841
0.7879754 0.07037216 -0.6116719
0.7891277 0.06763351 -0.6104943
0.790232 0.06500094 -0.6093506
0.7912907 0.0624699 -0.6082405
0.7923057 0.06003606 -0.6071634
0.7932789 0.05769526 -0.6061186
0.7942122 0.05544353 -0.6051057
0.7951073 0.05327709 -0.6041241
0.7959657 0.05119231 -0.6031732
0.796789 0.04918573 -0.6022524
0.7975787 0.04725403 -0.6013612
0.798336 0.04539406 -0.6004989
0.7990624 0.04360277 -0.599665
0.799759 0.04187729 -0.5988588
0.8004269 0.04021483 -0.5980799
0.8010674 0.03861274 -0.5973275
0.8016814 0.03706847 -0.5966011
0.80227 0.03557959 -0.5959001
0.8028341 0.03414376 -0.595224
0.8033747 0.03275873 -0.5945721
0.8038926 0.03142236 -0.5939439
0.8043886 0.03013257 -0.5933388
0.8048637 0.02888739 -0.5927563
0.8053184 0.0276849 -0.5921957
0.8057537 0.02652326 -0.5916566
0.80617 0.02540072 -0.5911385
0.8065682 0.02431556 -0.5906407
0.8069489 0.02326615 -0.5901629
0.8073126 0.02225091 -0.5897044
0.8076599 0.02126832 -0.5892649
0.8079915 0.0203169 -0.5888438
0.8083078 0.01939523 -0.5884407
0.8086092 0.01850195 -0.5880551
0.8088964 0.01763572 -0.5876866
0.8091698 0.01679526 -0.5873348
0.8094298 0.01597932 -0.5869993
0.8096767 0.01518671 -0.5866796
0.8099111 0.01441624 -0.5863755
0.8101332 0.0136668 -0.5860865
0.8103434 0.01293726 -0.5858124
0.8105421 0.01222657 -0.5855527
0.8107296 0.01153368 -0.5853072
0.8109061 0.01085757 -0.5850755
0.811072 0.01019727 -0.5848574
0.8112275 0.009551789 -0.5846527
0.8113728 0.0089202 -0.584461
0.8115082 0.008301578 -0.5842821
0.8116339 0.00769502 -0.5841157
0.8117501 0.007099642 -0.5839618
0.811857 0.006514578 -0.58382
0.8119547 0.005938976 -0.5836903
0.8120434 0.005371998 -0.5835724
0.8121232 0.00481282 -0.5834661
0.8121943 0.004260629 -0.5833714
0.8122568 0.003714623 -0.5832882
0.8123108 0.003174008 -0.5832162
0.8123563 0.002638 -0.5831555
0.8123934 0.00210582 -0.5831059
0.8124222 0.001576697 -0.5830674
0.8124428 0.001049861 -0.58304
0.8124551 0.0005245484 -0.5830235
0.8124592 -2.85722e-09 -0.583018
0.8124551 -0.0005245541 -0.5830235
0.8124428 -0.001049867 -0.58304
0.8124222 -0.001576702 -0.5830674
0.8123934 -0.002105826 -0.5831059
0.8123563 -0.002638006 -0.5831555
0.8123108 -0.003174014 -0.5832162
0.8122568 -0.003714628 -0.5832882
0.8121943 -0.004260635 -0.5833714
0.8121232 -0.004812826 -0.5834661
0.8120434 -0.005372004 -0.5835724
0.8119547 -0.005938982 -0.5836903
0.811857 -0.006514584 -0.58382
0.8117501 -0.007099648 -0.5839618
0.8116339 -0.007695025 -0.5841157
0.8115082 -0.008301583 -0.5842821
0.8113728 -0.008920206 -0.584461
0.8112275 -0.009551795 -0.5846527
0.811072 -0.01019727 -0.5848574
0.8109061 -0.01085758 -0.5850755
0.8107296 -0.01153369 -0.5853072
0.8105421 -0.01222658 -0.5855527
0.8103434 -0.01293727 -0.5858124
0.8101332 -0.0136668 -0.5860865
0.8099111 -0.01441625 -0.5863755
0.8096767 -0.01518671 -0.5866796
0.8094298 -0.01597933 -0.5869993
0.8091698 -0.01679527 -0.5873348
0.8088964 -0.01763573 -0.5876866
0.8086092 -0.01850196 -0.5880551
0.8083078 -0.01939524 -0.5884407
0.8079915 -0.0203169 -0.5888438
0.8076599 -0.02126832 -0.5892649
0.8073126 -0.02225092 -0.5897044
0.8069489 -0.02326616 -0.5901629
0.8065682 -0.02431556 -0.5906407
0.80617 -0.02540072 -0.5911385
0.8057537 -0.02652327 -0.5916566
0.8053184 -0.0276849 -0.5921957
0.8048637 -0.02888739 -0.5927563
0.8043886 -0.03013258 -0.5933388