# vtk DataFile Version 2.0
Written badly by Kevin Korner
ASCII
DATASET POLYDATA
POINTS 350 FLOAT
0 0 0
0.00286533 0 0
0.005729247 -3.9113e-05 8.097641e-05
0.008588887 -0.0001151888 0.0002446517
0.01144132 -0.0002259359 0.0004925791
0.01428358 -0.0003689269 0.0008261307
0.01711264 -0.0005416047 0.001246487
0.01992547 -0.0007412898 0.001754626
0.02271903 -0.0009651888 0.002351316
0.02549025 -0.001210404 0.003037105
0.0282361 -0.001473942 0.003812317
0.03095357 -0.001752728 0.004677043
0.03363968 -0.002043614 0.005631142
0.03629151 -0.002343392 0.006674232
0.03890621 -0.002648811 0.007805696
0.04148098 -0.002956584 0.009024677
0.04401315 -0.003263406 0.01033008
0.04650013 -0.003565968 0.01172059
0.04893945 -0.003860969 0.01319464
0.05132875 -0.004145131 0.01475047
0.05366582 -0.004415214 0.01638609
0.0559486 -0.004668028 0.01809932
0.05817515 -0.004900445 0.01988777
0.06034372 -0.005109418 0.02174888
0.06245271 -0.005291983 0.02367993
0.06450068 -0.005445278 0.02567804
0.06648638 -0.005566553 0.02774018
0.06840871 -0.005653174 0.0298632
0.07026677 -0.005702638 0.03204386
0.07205982 -0.005712575 0.03427881
0.07378729 -0.00568076 0.03656462
0.0754488 -0.005605114 0.03889781
0.07704412 -0.005483711 0.04127486
0.07857319 -0.005314779 0.04369219
0.08003612 -0.005096706 0.04614625
0.08143315 -0.004828036 0.04863346
0.0827647 -0.004507474 0.05115027
0.08403131 -0.004133882 0.05369315
0.08523365 -0.00370628 0.05625863
0.08637253 -0.00322384 0.05884326
0.08744885 -0.002685888 0.06144369
0.08846367 -0.002091893 0.06405663
0.08941808 -0.001441469 0.06667887
0.09031333 -0.0007343668 0.0693073
0.0911507 2.953252e-05 0.07193891
0.09193156 0.0008502215 0.0745708
0.09265736 0.001727574 0.07720017
0.09332958 0.002661351 0.07982434
0.09394977 0.003651207 0.08244077
0.09451951 0.004696701 0.085047
0.0950404 0.005797297 0.08764074
0.09551409 0.006952375 0.09021979
0.09594222 0.008161239 0.09278211
0.09632646 0.00942312 0.09532575
0.09666848 0.01073719 0.09784892
0.09696995 0.01210255 0.1003499
0.09723252 0.01351827 0.1028272
0.09745785 0.01498336 0.1052793
0.09764758 0.01649679 0.1077049
0.0978033 0.01805751 0.1101029
0.09792662 0.01966444 0.112472
0.09801909 0.02131647 0.1148113
0.09808225 0.02301246 0.1171199
0.09811759 0.02475129 0.119397
0.09812658 0.0265318 0.121642
0.09811065 0.02835284 0.1238541
0.09807118 0.03021326 0.126033
0.09800952 0.0321119 0.1281781
0.09792698 0.03404762 0.1302891
0.09782483 0.03601927 0.1323657
0.09770429 0.03802573 0.1344077
0.09756653 0.04006588 0.1364149
0.0974127 0.04213861 0.1383873
0.0972439 0.04424285 0.1403247
0.09706117 0.04637751 0.1422274
0.09686553 0.04854156 0.1440952
0.09665794 0.05073396 0.1459283
0.09643933 0.05295371 0.1477269
0.09621059 0.05519983 0.1494912
0.09597257 0.05747135 0.1512214
0.09572607 0.05976733 0.1529179
0.09547187 0.06208688 0.1545807
0.0952107 0.06442909 0.1562105
0.09494325 0.0667931 0.1578073
0.0946702 0.06917808 0.1593718
0.09439216 0.07158322 0.1609041
0.09410973 0.07400771 0.1624048
0.09382348 0.07645082 0.1638743
0.09353394 0.07891178 0.1653131
0.09324161 0.0813899 0.1667215
0.09294697 0.08388447 0.1681
0.09265047 0.08639484 0.1694492
0.09235253 0.08892035 0.1707695
0.09205355 0.0914604 0.1720613
0.09175389 0.09401437 0.1733253
0.09145392 0.0965817 0.1745618
0.09115395 0.09916182 0.1757713
0.09085429 0.1017542 0.1769545
0.09055523 0.1043584 0.1781117
0.09025703 0.1069738 0.1792434
0.08995996 0.1096 0.1803502
0.08966423 0.1122365 0.1814326
0.08937006 0.1148829 0.1824909
0.08907766 0.1175388 0.1835258
0.0887872 0.1202037 0.1845376
0.08849887 0.1228773 0.1855269
0.08821281 0.1255593 0.1864941
0.08792918 0.1282492 0.1874396
0.08764811 0.1309467 0.188364
0.08736972 0.1336515 0.1892676
0.08709413 0.1363633 0.190151
0.08682144 0.1390818 0.1910144
0.08655175 0.1418067 0.1918584
0.08628513 0.1445378 0.1926833
0.08602168 0.1472747 0.1934896
0.08576146 0.1500172 0.1942776
0.08550453 0.1527651 0.1950477
0.08525096 0.1555182 0.1958003
0.0850008 0.1582762 0.1965357
0.0847541 0.161039 0.1972543
0.0845109 0.1638063 0.1979564
0.08427124 0.166578 0.1986423
0.08403516 0.1693538 0.1993123
0.08380268 0.1721337 0.1999668
0.08357385 0.1749174 0.2006061
0.08334869 0.1777049 0.2012303
0.08312722 0.1804958 0.2018398
0.08290947 0.1832902 0.2024349
0.08269547 0.1860879 0.2030157
0.08248522 0.1888887 0.2035825
0.08227875 0.1916926 0.2041355
0.08207609 0.1944994 0.2046749
0.08187726 0.197309 0.205201
0.08168227 0.2001213 0.2057138
0.08149114 0.2029362 0.2062136
0.0813039 0.2057536 0.2067006
0.08112057 0.2085735 0.2071748
0.08094117 0.2113957 0.2076364
0.08076572 0.2142202 0.2080856
0.08059425 0.2170468 0.2085224
0.08042679 0.2198756 0.2089469
0.08026336 0.2227063 0.2093594
0.08010399 0.2255391 0.2097597
0.07994872 0.2283737 0.2101481
0.07979757 0.2312102 0.2105245
0.07965058 0.2340484 0.2108891
0.07950779 0.2368884 0.2112418
0.07936923 0.23973 0.2115827
0.07923495 0.2425732 0.2119119
0.07910498 0.2454179 0.2122293
0.07897937 0.2482641 0.212535
0.07885817 0.2511117 0.212829
0.07874142 0.2539607 0.2131112
0.07862917 0.2568111 0.2133817
0.07852147 0.2596626 0.2136404
0.07841837 0.2625155 0.2138874
0.07831993 0.2653694 0.2141225
0.07822621 0.2682245 0.2143457
0.07813725 0.2710807 0.214557
0.07805311 0.2739378 0.2147564
0.07797386 0.2767959 0.2149437
0.07789954 0.2796549 0.215119
0.07783023 0.2825147 0.2152821
0.07776596 0.2853754 0.2154331
0.07770681 0.2882367 0.2155718
0.07765283 0.2910988 0.2156981
0.07760406 0.2939614 0.2158121
0.07756057 0.2968246 0.2159136
0.07752239 0.2996883 0.2160025
0.07748958 0.3025524 0.2160789
0.07746218 0.3054169 0.2161427
0.07744021 0.3082817 0.2161937
0.0774237 0.3111467 0.2162321
0.07741269 0.3140119 0.2162576
0.07740718 0.3168772 0.2162704
0.07740718 0.3197426 0.2162704
0.07741269 0.3226078 0.2162576
0.0774237 0.325473 0.2162321
0.07744021 0.3283381 0.2161937
0.07746218 0.3312029 0.2161427
0.07748958 0.3340673 0.2160789
0.07752239 0.3369315 0.2160025
0.07756057 0.3397952 0.2159136
0.07760406 0.3426584 0.2158121
0.07765283 0.345521 0.2156981
0.07770681 0.348383 0.2155718
0.07776596 0.3512444 0.2154331
0.07783023 0.354105 0.2152821
0.07789954 0.3569649 0.215119
0.07797386 0.3598239 0.2149437
0.07805311 0.362682 0.2147564
0.07813725 0.3655391 0.214557
0.07822621 0.3683953 0.2143457
0.07831994 0.3712503 0.2141225
0.07841837 0.3741043 0.2138874
0.07852147 0.3769571 0.2136404
0.07862917 0.3798087 0.2133817
0.07874142 0.382659 0.2131112
0.07885817 0.385508 0.212829
0.07897937 0.3883557 0.212535
0.07910498 0.3912019 0.2122293
0.07923495 0.3940466 0.2119119
0.07936923 0.3968898 0.2115827
0.07950779 0.3997314 0.2112418
0.07965058 0.4025713 0.2108891
0.07979757 0.4054096 0.2105245
0.07994872 0.4082461 0.2101481
0.08010399 0.4110807 0.2097597
0.08026336 0.4139134 0.2093594
0.08042679 0.4167442 0.2089469
0.08059425 0.419573 0.2085224
0.08076572 0.4223996 0.2080856
0.08094117 0.4252241 0.2076364
0.08112057 0.4280463 0.2071748
0.0813039 0.4308661 0.2067006
0.08149114 0.4336836 0.2062136
0.08168227 0.4364985 0.2057138
0.08187726 0.4393108 0.205201
0.0820761 0.4421204 0.2046749
0.08227875 0.4449272 0.2041355
0.08248522 0.447731 0.2035825
0.08269547 0.4505319 0.2030157
0.08290947 0.4533295 0.2024349
0.08312722 0.4561239 0.2018398
0.08334869 0.4589149 0.2012303
0.08357385 0.4617023 0.2006061
0.08380268 0.4644861 0.1999668
0.08403516 0.4672659 0.1993123
0.08427124 0.4700418 0.1986423
0.0845109 0.4728135 0.1979564
0.0847541 0.4755808 0.1972543
0.0850008 0.4783436 0.1965357
0.08525096 0.4811016 0.1958003
0.08550453 0.4838547 0.1950477
0.08576146 0.4866026 0.1942776
0.08602168 0.4893451 0.1934896
0.08628513 0.492082 0.1926833
0.08655175 0.494813 0.1918584
0.08682144 0.4975379 0.1910144
0.08709413 0.5002564 0.190151
0.08736972 0.5029682 0.1892676
0.08764811 0.5056731 0.188364
0.08792918 0.5083706 0.1874396
0.08821281 0.5110605 0.1864941
0.08849887 0.5137424 0.1855269
0.0887872 0.5164161 0.1845376
0.08907766 0.519081 0.1835258
0.08937006 0.5217369 0.1824909
0.08966423 0.5243833 0.1814326
0.08995996 0.5270198 0.1803502
0.09025703 0.529646 0.1792434
0.09055523 0.5322614 0.1781117
0.09085429 0.5348656 0.1769545
0.09115395 0.5374579 0.1757713
0.09145392 0.5400381 0.1745618
0.09175389 0.5426054 0.1733253
0.09205355 0.5451594 0.1720613
0.09235253 0.5476994 0.1707695
0.09265047 0.5502249 0.1694492
0.09294697 0.5527353 0.1681
0.09324161 0.5552299 0.1667215
0.09353394 0.557708 0.1653131
0.09382348 0.560169 0.1638743
0.09410973 0.5626121 0.1624048
0.09439216 0.5650366 0.1609041
0.0946702 0.5674417 0.1593718
0.09494325 0.5698267 0.1578073
0.0952107 0.5721907 0.1562105
0.09547187 0.5745329 0.1545807
0.09572607 0.5768524 0.1529179
0.09597257 0.5791484 0.1512214
0.09621059 0.5814199 0.1494912
0.09643933 0.5836661 0.1477269
0.09665794 0.5858858 0.1459283
0.09686553 0.5880782 0.1440952
0.09706117 0.5902423 0.1422274
0.0972439 0.5923769 0.1403247
0.0974127 0.5944812 0.1383873
0.09756653 0.5965539 0.1364149
0.09770429 0.598594 0.1344077
0.09782483 0.6006005 0.1323657
0.09792698 0.6025722 0.1302891
0.09800952 0.6045079 0.1281781
0.09807118 0.6064065 0.126033
0.09811065 0.6082669 0.1238541
0.09812658 0.610088 0.121642
0.09811759 0.6118685 0.119397
0.09808225 0.6136073 0.1171199
0.09801909 0.6153033 0.1148113
0.09792662 0.6169553 0.112472
0.0978033 0.6185623 0.1101029
0.09764758 0.620123 0.1077049
0.09745785 0.6216364 0.1052793
0.09723252 0.6231015 0.1028272
0.09696995 0.6245172 0.1003499
0.09666848 0.6258826 0.09784892
0.09632646 0.6271967 0.09532575
0.09594222 0.6284585 0.09278211
0.09551409 0.6296674 0.09021979
0.0950404 0.6308225 0.08764074
0.09451951 0.6319231 0.085047
0.09394977 0.6329686 0.08244077
0.09332958 0.6339584 0.07982434
0.09265736 0.6348922 0.07720017
0.09193156 0.6357696 0.0745708
0.0911507 0.6365902 0.07193891
0.09031333 0.6373541 0.0693073
0.08941808 0.6380612 0.06667887
0.08846367 0.6387117 0.06405663
0.08744885 0.6393057 0.06144369
0.08637253 0.6398436 0.05884326
0.08523365 0.6403261 0.05625863
0.08403131 0.6407537 0.05369315
0.0827647 0.6411272 0.05115027
0.08143315 0.6414478 0.04863346
0.08003612 0.6417165 0.04614625
0.07857319 0.6419346 0.04369219
0.07704412 0.6421035 0.04127486
0.0754488 0.6422249 0.03889781
0.07378729 0.6423005 0.03656462
0.07205982 0.6423323 0.03427881
0.07026677 0.6423224 0.03204386
0.06840871 0.6422729 0.0298632
0.06648638 0.6421863 0.02774018
0.06450068 0.6420651 0.02567804
0.06245271 0.6419118 0.02367993
0.06034372 0.6417292 0.02174888
0.05817515 0.6415202 0.01988777
0.0559486 0.6412878 0.01809932
0.05366582 0.641035 0.01638609
0.05132875 0.6407649 0.01475047
0.04893945 0.6404807 0.01319464
0.04650013 0.6401857 0.01172059
0.04401315 0.6398832 0.01033008
0.04148098 0.6395764 0.009024677
0.03890621 0.6392686 0.007805696
0.03629151 0.6389632 0.006674232
0.03363968 0.6386634 0.005631142
0.03095357 0.6383725 0.004677043
0.0282361 0.6380937 0.003812317
0.02549025 0.6378302 0.003037105
0.02271903 0.637585 0.002351316
0.01992547 0.6373611 0.001754626
0.01711264 0.6371614 0.001246487
0.01428358 0.6369887 0.0008261307
0.01144132 0.6368457 0.0004925791
0.008588887 0.636735 0.0002446517
0.005729247 0.6366589 8.097641e-05
0.00286533 0.6366198 0
0 0.6366198 0

LINES 349 1047
2 0 1
2 1 2
2 2 3
2 3 4
2 4 5
2 5 6
2 6 7
2 7 8
2 8 9
2 9 10
2 10 11
2 11 12
2 12 13
2 13 14
2 14 15
2 15 16
2 16 17
2 17 18
2 18 19
2 19 20
2 20 21
2 21 22
2 22 23
2 23 24
2 24 25
2 25 26
2 26 27
2 27 28
2 28 29
2 29 30
2 30 31
2 31 32
2 32 33
2 33 34
2 34 35
2 35 36
2 36 37
2 37 38
2 38 39
2 39 40
2 40 41
2 41 42
2 42 43
2 43 44
2 44 45
2 45 46
2 46 47
2 47 48
2 48 49
2 49 50
2 50 51
2 51 52
2 52 53
2 53 54
2 54 55
2 55 56
2 56 57
2 57 58
2 58 59
2 59 60
2 60 61
2 61 62
2 62 63
2 63 64
2 64 65
2 65 66
2 66 67
2 67 68
2 68 69
2 69 70
2 70 71
2 71 72
2 72 73
2 73 74
2 74 75
2 75 76
2 76 77
2 77 78
2 78 79
2 79 80
2 80 81
2 81 82
2 82 83
2 83 84
2 84 85
2 85 86
2 86 87
2 87 88
2 88 89
2 89 90
2 90 91
2 91 92
2 92 93
2 93 94
2 94 95
2 95 96
2 96 97
2 97 98
2 98 99
2 99 100
2 100 101
2 101 102
2 102 103
2 103 104
2 104 105
2 105 106
2 106 107
2 107 108
2 108 109
2 109 110
2 110 111
2 111 112
2 112 113
2 113 114
2 114 115
2 115 116
2 116 117
2 117 118
2 118 119
2 119 120
2 120 121
2 121 122
2 122 123
2 123 124
2 124 125
2 125 126
2 126 127
2 127 128
2 128 129
2 129 130
2 130 131
2 131 132
2 132 133
2 133 134
2 134 135
2 135 136
2 136 137
2 137 138
2 138 139
2 139 140
2 140 141
2 141 142
2 142 143
2 143 144
2 144 145
2 145 146
2 146 147
2 147 148
2 148 149
2 149 150
2 150 151
2 151 152
2 152 153
2 153 154
2 154 155
2 155 156
2 156 157
2 157 158
2 158 159
2 159 160
2 160 161
2 161 162
2 162 163
2 163 164
2 164 165
2 165 166
2 166 167
2 167 168
2 168 169
2 169 170
2 170 171
2 171 172
2 172 173
2 173 174
2 174 175
2 175 176
2 176 177
2 177 178
2 178 179
2 179 180
2 180 181
2 181 182
2 182 183
2 183 184
2 184 185
2 185 186
2 186 187
2 187 188
2 188 189
2 189 190
2 190 191
2 191 192
2 192 193
2 193 194
2 194 195
2 195 196
2 196 197
2 197 198
2 198 199
2 199 200
2 200 201
2 201 202
2 202 203
2 203 204
2 204 205
2 205 206
2 206 207
2 207 208
2 208 209
2 209 210
2 210 211
2 211 212
2 212 213
2 213 214
2 214 215
2 215 216
2 216 217
2 217 218
2 218 219
2 219 220
2 220 221
2 221 222
2 222 223
2 223 224
2 224 225
2 225 226
2 226 227
2 227 228
2 228 229
2 229 230
2 230 231
2 231 232
2 232 233
2 233 234
2 234 235
2 235 236
2 236 237
2 237 238
2 238 239
2 239 240
2 240 241
2 241 242
2 242 243
2 243 244
2 244 245
2 245 246
2 246 247
2 247 248
2 248 249
2 249 250
2 250 251
2 251 252
2 252 253
2 253 254
2 254 255
2 255 256
2 256 257
2 257 258
2 258 259
2 259 260
2 260 261
2 261 262
2 262 263
2 263 264
2 264 265
2 265 266
2 266 267
2 267 268
2 268 269
2 269 270
2 270 271
2 271 272
2 272 273
2 273 274
2 274 275
2 275 276
2 276 277
2 277 278
2 278 279
2 279 280
2 280 281
2 281 282
2 282 283
2 283 284
2 284 285
2 285 286
2 286 287
2 287 288
2 288 289
2 289 290
2 290 291
2 291 292
2 292 293
2 293 294
2 294 295
2 295 296
2 296 297
2 297 298
2 298 299
2 299 300
2 300 301
2 301 302
2 302 303
2 303 304
2 304 305
2 305 306
2 306 307
2 307 308
2 308 309
2 309 310
2 310 311
2 311 312
2 312 313
2 313 314
2 314 315
2 315 316
2 316 317
2 317 318
2 318 319
2 319 320
2 320 321
2 321 322
2 322 323
2 323 324
2 324 325
2 325 326
2 326 327
2 327 328
2 328 329
2 329 330
2 330 331
2 331 332
2 332 333
2 333 334
2 334 335
2 335 336
2 336 337
2 337 338
2 338 339
2 339 340
2 340 341
2 341 342
2 342 343
2 343 344
2 344 345
2 345 346
2 346 347
2 347 348
2 348 349


POINT_DATA 350
SCALARS a FLOAT 1
LOOKUP_TABLE default
0.0005894628
0.0005894628
0.0005894628
0.0005894628
0.0005894628
0.0005894628
0.0005894628
0.0005894628
0.0005894628
0.0005894628
0.0005894628
0.0005894628
0.0005894628
0.0005894628
0.0005894628
0.0005894628
0.0005894628
0.0005894628
0.0005894628
0.0005894628
0.0005894628
0.0005894628
0.0005894628
0.0005894628
0.0005894628
0.0005894628
0.0005894628
0.0005894628
0.0005894628
0.0005894628
0.0005894628
0.0005894628
0.0005894628
0.0005894628
0.0005894628
0.0005894628
0.0005894628
0.0005894628
0.0005894628
0.0005894628
0.0005894628
0.0005894628
0.0005894628
0.0005894628
0.0005894628
0.0005894628
0.0005894628
0.0005894628
0.0005894628
0.0005894628
0.0005894628
0.0005894628
0.0005894628
0.0005894628
0.0005894628
0.0005894628
0.0005894628
0.0005894628
0.0005894628
0.0005894628
0.0005894628
0.0005894628
0.0005894628
0.0005894628
0.0005894628
0.0005894628
0.0005894628
0.0005894628
0.0005894628
0.0005894628
0.0005894628
0.0005894628
0.0005894628
0.0005894628
0.0005894628
0.0005894628
0.0005894628
0.0005894628
0.0005894628
0.0005894628
0.0005894628
0.0005894628
0.0005894628
0.0005894628
0.0005894628
0.0005894628
0.0005894628
0.0005894628
0.0005894628
0.0005894628
0.0005894628
0.0005894628
0.0005894628
0.0005894628
0.0005894628
0.0005894628
0.0005894628
0.0005894628
0.0005894628
0.0005894628
0.0005894628
0.0005894628
0.0005894628
0.0005894628
0.0005894628
0.0005894628
0.0005894628
0.0005894628
0.0005894628
0.0005894628
0.0005894628
0.0005894628
0.0005894628
0.0005894628
0.0005894628
0.0005894628
0.0005894628
0.0005894628
0.0005894628
0.0005894628
0.0005894628
0.0005894628
0.0005894628
0.0005894628
0.0005894628
0.0005894628
0.0005894628
0.0005894628
0.0005894628
0.0005894628
0.0005894628
0.0005894628
0.0005894628
0.0005894628
0.0005894628
0.0005894628
0.0005894628
0.0005894628
0.0005894628
0.0005894628
0.0005894628
0.0005894628
0.0005894628
0.0005894628
0.0005894628
0.0005894628
0.0005894628
0.0005894628
0.0005894628
0.0005894628
0.0005894628
0.0005894628
0.0005894628
0.0005894628
0.0005894628
0.0005894628
0.0005894628
0.0005894628
0.0005894628
0.0005894628
0.0005894628
0.0005894628
0.0005894628
0.0005894628
0.0005894628
0.0005894628
0.0005894628
0.0005894628
0.0005894628
0.0005894628
0.0005894628
0.0005894628
0.0005894628
0.0005894628
0.0005894628
0.0005894628
0.0005894628
0.0005894628
0.0005894628
0.0005894628
0.0005894628
0.0005894628
0.0005894628
0.0005894628
0.0005894628
0.0005894628
0.0005894628
0.0005894628
0.0005894628
0.0005894628
0.0005894628
0.0005894628
0.0005894628
0.0005894628
0.0005894628
0.0005894628
0.0005894628
0.0005894628
0.0005894628
0.0005894628
0.0005894628
0.0005894628
0.0005894628
0.0005894628
0.0005894628
0.0005894628
0.0005894628
0.0005894628
0.0005894628
0.0005894628
0.0005894628
0.0005894628
0.0005894628
0.0005894628
0.0005894628
0.0005894628
0.0005894628
0.0005894628
0.0005894628
0.0005894628
0.0005894628
0.0005894628
0.0005894628
0.0005894628
0.0005894628
0.0005894628
0.0005894628
0.0005894628
0.0005894628
0.0005894628
0.0005894628
0.0005894628
0.0005894628
0.0005894628
0.0005894628
0.0005894628
0.0005894628
0.0005894628
0.0005894628
0.0005894628
0.0005894628
0.0005894628
0.0005894628
0.0005894628
0.0005894628
0.0005894628
0.0005894628
0.0005894628
0.0005894628
0.0005894628
0.0005894628
0.0005894628
0.0005894628
0.0005894628
0.0005894628
0.0005894628
0.0005894628
0.0005894628
0.0005894628
0.0005894628
0.0005894628
0.0005894628
0.0005894628
0.0005894628
0.0005894628
0.0005894628
0.0005894628
0.0005894628
0.0005894628
0.0005894628
0.0005894628
0.0005894628
0.0005894628
0.0005894628
0.0005894628
0.0005894628
0.0005894628
0.0005894628
0.0005894628
0.0005894628
0.0005894628
0.0005894628
0.0005894628
0.0005894628
0.0005894628
0.0005894628
0.0005894628
0.0005894628
0.0005894628
0.0005894628
0.0005894628
0.0005894628
0.0005894628
0.0005894628
0.0005894628
0.0005894628
0.0005894628
0.0005894628
0.0005894628
0.0005894628
0.0005894628
0.0005894628
0.0005894628
0.0005894628
0.0005894628
0.0005894628
0.0005894628
0.0005894628
0.0005894628
0.0005894628
0.0005894628
0.0005894628
0.0005894628
0.0005894628
0.0005894628
0.0005894628
0.0005894628
0.0005894628
0.0005894628
0.0005894628
0.0005894628
0.0005894628
0.0005894628
0.0005894628
0.0005894628
0.0005894628
0.0005894628
0.0005894628
0.0005894628
0.0005894628
0.0005894628
0.0005894628
0.0005894628
0.0005894628
0.0005894628
0.0005894628
0.0005894628
0.0005894628
0.0005894628
0.0005894628
0.0005894628
0.0005894628
0.0005894628
0.0005894628
0.0005894628
0.0005894628
0.0005894628
0.0005894628
0.0005894628
0.0005894628


SCALARS b FLOAT 1
LOOKUP_TABLE default
0.04420971
0.04420971
0.04420971
0.04420971
0.04420971
0.04420971
0.04420971
0.04420971
0.04420971
0.04420971
0.04420971
0.04420971
0.04420971
0.04420971
0.04420971
0.04420971
0.04420971
0.04420971
0.04420971
0.04420971
0.04420971
0.04420971
0.04420971
0.04420971
0.04420971
0.04420971
0.04420971
0.04420971
0.04420971
0.04420971
0.04420971
0.04420971
0.04420971
0.04420971
0.04420971
0.04420971
0.04420971
0.04420971
0.04420971
0.04420971
0.04420971
0.04420971
0.04420971
0.04420971
0.04420971
0.04420971
0.04420971
0.04420971
0.04420971
0.04420971
0.04420971
0.04420971
0.04420971
0.04420971
0.04420971
0.04420971
0.04420971
0.04420971
0.04420971
0.04420971
0.04420971
0.04420971
0.04420971
0.04420971
0.04420971
0.04420971
0.04420971
0.04420971
0.04420971
0.04420971
0.04420971
0.04420971
0.04420971
0.04420971
0.04420971
0.04420971
0.04420971
0.04420971
0.04420971
0.04420971
0.04420971
0.04420971
0.04420971
0.04420971
0.04420971
0.04420971
0.04420971
0.04420971
0.04420971
0.04420971
0.04420971
0.04420971
0.04420971
0.04420971
0.04420971
0.04420971
0.04420971
0.04420971
0.04420971
0.04420971
0.04420971
0.04420971
0.04420971
0.04420971
0.04420971
0.04420971
0.04420971
0.04420971
0.04420971
0.04420971
0.04420971
0.04420971
0.04420971
0.04420971
0.04420971
0.04420971
0.04420971
0.04420971
0.04420971
0.04420971
0.04420971
0.04420971
0.04420971
0.04420971
0.04420971
0.04420971
0.04420971
0.04420971
0.04420971
0.04420971
0.04420971
0.04420971
0.04420971
0.04420971
0.04420971
0.04420971
0.04420971
0.04420971
0.04420971
0.04420971
0.04420971
0.04420971
0.04420971
0.04420971
0.04420971
0.04420971
0.04420971
0.04420971
0.04420971
0.04420971
0.04420971
0.04420971
0.04420971
0.04420971
0.04420971
0.04420971
0.04420971
0.04420971
0.04420971
0.04420971
0.04420971
0.04420971
0.04420971
0.04420971
0.04420971
0.04420971
0.04420971
0.04420971
0.04420971
0.04420971
0.04420971
0.04420971
0.04420971
0.04420971
0.04420971
0.04420971
0.04420971
0.04420971
0.04420971
0.04420971
0.04420971
0.04420971
0.04420971
0.04420971
0.04420971
0.04420971
0.04420971
0.04420971
0.04420971
0.04420971
0.04420971
0.04420971
0.04420971
0.04420971
0.04420971
0.04420971
0.04420971
0.04420971
0.04420971
0.04420971
0.04420971
0.04420971
0.04420971
0.04420971
0.04420971
0.04420971
0.04420971
0.04420971
0.04420971
0.04420971
0.04420971
0.04420971
0.04420971
0.04420971
0.04420971
0.04420971
0.04420971
0.04420971
0.04420971
0.04420971
0.04420971
0.04420971
0.04420971
0.04420971
0.04420971
0.04420971
0.04420971
0.04420971
0.04420971
0.04420971
0.04420971
0.04420971
0.04420971
0.04420971
0.04420971
0.04420971
0.04420971
0.04420971
0.04420971
0.04420971
0.04420971
0.04420971
0.04420971
0.04420971
0.04420971
0.04420971
0.04420971
0.04420971
0.04420971
0.04420971
0.04420971
0.04420971
0.04420971
0.04420971
0.04420971
0.04420971
0.04420971
0.04420971
0.04420971
0.04420971
0.04420971
0.04420971
0.04420971
0.04420971
0.04420971
0.04420971
0.04420971
0.04420971
0.04420971
0.04420971
0.04420971
0.04420971
0.04420971
0.04420971
0.04420971
0.04420971
0.04420971
0.04420971
0.04420971
0.04420971
0.04420971
0.04420971
0.04420971
0.04420971
0.04420971
0.04420971
0.04420971
0.04420971
0.04420971
0.04420971
0.04420971
0.04420971
0.04420971
0.04420971
0.04420971
0.04420971
0.04420971
0.04420971
0.04420971
0.04420971
0.04420971
0.04420971
0.04420971
0.04420971
0.04420971
0.04420971
0.04420971
0.04420971
0.04420971
0.04420971
0.04420971
0.04420971
0.04420971
0.04420971
0.04420971
0.04420971
0.04420971
0.04420971
0.04420971
0.04420971
0.04420971
0.04420971
0.04420971
0.04420971
0.04420971
0.04420971
0.04420971
0.04420971
0.04420971
0.04420971
0.04420971
0.04420971
0.04420971
0.04420971
0.04420971
0.04420971
0.04420971
0.04420971
0.04420971
0.04420971
0.04420971
0.04420971
0.04420971
0.04420971
0.04420971
0.04420971
0.04420971
0.04420971
0.04420971
0.04420971


VECTORS d1 FLOAT
0 -0.4481024 0.8939822
-0.03138134 -0.4213099 0.9063736
-0.06296373 -0.3935535 0.917143
-0.09467243 -0.3648805 0.9262285
-0.12643 -0.3353439 0.9335738
-0.1581566 -0.3050012 0.9391276
-0.1897708 -0.2739152 0.9428454
-0.2211893 -0.2421531 0.9446889
-0.2523282 -0.2097862 0.944627
-0.2831032 -0.1768901 0.9426359
-0.3134299 -0.1435435 0.9386996
-0.3432248 -0.1098284 0.93281
-0.3724055 -0.07582941 0.9249671
-0.4008912 -0.04163306 0.9151792
-0.4286038 -0.007327526 0.9034628
-0.4554677 0.02699804 0.8898428
-0.4814107 0.0612541 0.8743521
-0.5063644 0.09535126 0.8570316
-0.5302648 0.1292009 0.8379298
-0.5530524 0.1627157 0.8171026
-0.5746727 0.1958102 0.7946129
-0.5950766 0.2284014 0.7705301
-0.6142206 0.2604092 0.7449296
-0.6320671 0.2917569 0.7178922
-0.6485842 0.3223716 0.6895036
-0.6637462 0.3521846 0.6598537
-0.6775337 0.381132 0.6290361
-0.6899331 0.4091547 0.5971472
-0.700937 0.4361985 0.5642855
-0.7105439 0.4622149 0.5305514
-0.7187579 0.4871607 0.496046
-0.7255888 0.5109983 0.4608706
-0.7310517 0.5336957 0.4251262
-0.7351667 0.5552267 0.3889128
-0.7379586 0.5755705 0.3523291
-0.7394565 0.5947117 0.3154713
-0.7396936 0.6126404 0.2784333
-0.7387067 0.6293518 0.2413062
-0.736536 0.644846 0.2041773
-0.7332242 0.6591279 0.1671306
-0.728817 0.6722067 0.1302458
-0.7233618 0.6840958 0.09359848
-0.7169078 0.6948126 0.05725983
-0.7095057 0.7043779 0.02129635
-0.701207 0.7128157 -0.01423012
-0.692064 0.7201532 -0.04926247
-0.6821292 0.7264199 -0.08374838
-0.6714554 0.7316478 -0.1176403
-0.6600948 0.7358705 -0.1508953
-0.6480994 0.7391238 -0.1834752
-0.6355203 0.7414445 -0.2153462
-0.6224076 0.7428707 -0.246479
-0.6088106 0.7434411 -0.2768484
-0.5947769 0.7431952 -0.3064333
-0.580353 0.7421727 -0.3352165
-0.5655835 0.7404136 -0.3631845
-0.5505117 0.7379578 -0.3903271
-0.5351789 0.7348447 -0.4166376
-0.5196247 0.7311136 -0.4421121
-0.5038869 0.7268031 -0.4667497
-0.4880012 0.7219511 -0.4905522
-0.4720018 0.7165947 -0.5135235
-0.4559206 0.7107701 -0.5356699
-0.4397879 0.7045126 -0.5569997
-0.4236319 0.6978562 -0.577523
-0.4074792 0.6908339 -0.5972514
-0.3913543 0.6834776 -0.6161981
-0.3752803 0.675818 -0.6343775
-0.3592783 0.6678842 -0.651805
-0.3433679 0.6597046 -0.6684971
-0.327567 0.6513059 -0.684471
-0.311892 0.6427137 -0.6997446
-0.2963579 0.6339524 -0.7143363
-0.2809783 0.6250451 -0.728265
-0.2657652 0.6160135 -0.7415499
-0.2507297 0.6068784 -0.7542103
-0.2358814 0.5976592 -0.7662659
-0.221229 0.5883743 -0.7777361
-0.2067799 0.5790408 -0.7886405
-0.1925406 0.5696748 -0.7989986
-0.1785166 0.5602913 -0.8088297
-0.1647126 0.5509045 -0.8181528
-0.1511325 0.5415273 -0.8269868
-0.1377792 0.5321719 -0.8353502
-0.1246551 0.5228495 -0.8432612
-0.1117618 0.5135705 -0.8507377
-0.0991005 0.5043442 -0.8577972
-0.08667153 0.4951796 -0.8644566
-0.07447491 0.4860846 -0.8707326
-0.06251011 0.4770664 -0.8766414
-0.05077618 0.4681317 -0.8821987
-0.03927177 0.4592864 -0.8874197
-0.02799517 0.4505359 -0.8923192
-0.01694432 0.441885 -0.8969117
-0.006116896 0.4333378 -0.9012108
0.004489707 0.4248981 -0.9052301
0.01487833 0.416569 -0.9089823
0.02505201 0.4083535 -0.9124801
0.03501399 0.4002537 -0.9157352
0.04476766 0.3922716 -0.9187594
0.05431655 0.3844087 -0.9215637
0.06366431 0.3766662 -0.9241588
0.0728147 0.3690449 -0.9265548
0.08177156 0.3615453 -0.9287618
0.09053878 0.3541676 -0.9307889
0.09912033 0.3469117 -0.9326454
0.1075202 0.3397771 -0.9343398
0.1157424 0.3327633 -0.9358805
0.1237909 0.3258694 -0.9372753
0.1316699 0.3190943 -0.9385318
0.1393832 0.3124366 -0.9396572
0.1469349 0.3058948 -0.9406585
0.154329 0.2994671 -0.9415423
0.1615694 0.2931517 -0.9423149
0.16866 0.2869465 -0.9429823
0.1756045 0.2808491 -0.9435501
0.1824068 0.2748572 -0.944024
0.1890706 0.2689682 -0.944409
0.1955994 0.2631794 -0.9447103
0.2019967 0.257488 -0.9449324
0.2082661 0.251891 -0.94508
0.2144107 0.2463854 -0.9451573
0.2204339 0.240968 -0.9451684
0.2263388 0.2356355 -0.9451173
0.2321284 0.2303847 -0.9450076
0.2378054 0.2252121 -0.9448429
0.2433728 0.2201142 -0.9446266
0.248833 0.2150876 -0.9443619
0.2541887 0.2101286 -0.944052
0.259442 0.2052336 -0.9436996
0.2645953 0.2003991 -0.9433078
0.2696506 0.1956213 -0.942879
0.2746097 0.1908967 -0.942416
0.2794745 0.1862215 -0.9419212
0.2842465 0.1815921 -0.941397
0.2889271 0.1770049 -0.9408456
0.2935176 0.1724563 -0.9402692
0.2980191 0.1679427 -0.9396701
0.3024326 0.1634606 -0.9390501
0.3067588 0.1590064 -0.9384114
0.3109983 0.1545768 -0.9377559
0.3151515 0.1501683 -0.9370854
0.3192186 0.1457777 -0.9364018
0.3231997 0.1414015 -0.935707
0.3270947 0.1370367 -0.9350027
0.3309032 0.13268 -0.9342907
0.3346246 0.1283284 -0.9335728
0.3382583 0.123979 -0.9328507
0.3418033 0.1196287 -0.9321263
0.3452585 0.1152748 -0.9314013
0.3486223 0.1109145 -0.9306774
0.3518933 0.1065452 -0.9299566
0.3550695 0.1021643 -0.9292406
0.3581487 0.09776937 -0.9285315
0.3611286 0.09335813 -0.927831
0.3640064 0.08892837 -0.9271413
0.3667793 0.08447805 -0.9264645
0.3694438 0.08000527 -0.9258026
0.3719964 0.07550832 -0.9251579
0.3744333 0.07098569 -0.9245327
0.37675 0.06643609 -0.9239295
0.3789421 0.06185847 -0.9233506
0.3810047 0.05725209 -0.9227988
0.3829326 0.05261651 -0.9222766
0.3847204 0.04795165 -0.9217868
0.3863624 0.04325783 -0.9213321
0.3878529 0.03853581 -0.9209154
0.3891859 0.03378683 -0.9205394
0.3903558 0.02901264 -0.9202068
0.3913569 0.02421551 -0.9199203
0.392184 0.01939822 -0.9196822
0.3928326 0.0145641 -0.9194947
0.3932988 0.00971688 -0.9193593
0.3935798 0.004860712 -0.9192776
0.3936736 -1.974134e-09 -0.9192503
0.3935798 -0.004860716 -0.9192776
0.3932988 -0.009716884 -0.9193593
0.3928326 -0.0145641 -0.9194947
0.392184 -0.01939823 -0.9196822
0.3913569 -0.02421551 -0.9199203
0.3903558 -0.02901265 -0.9202068
0.3891859 -0.03378684 -0.9205394
0.3878529 -0.03853581 -0.9209154
0.3863624 -0.04325783 -0.9213321
0.3847204 -0.04795165 -0.9217868
0.3829326 -0.05261651 -0.9222766
0.3810047 -0.0572521 -0.9227988
0.3789421 -0.06185848 -0.9233506
0.37675 -0.06643609 -0.9239295
0.3744333 -0.07098569 -0.9245327
0.3719964 -0.07550832 -0.9251579
0.3694438 -0.08000527 -0.9258026
0.3667793 -0.08447805 -0.9264645
0.3640064 -0.08892838 -0.9271413
0.3611286 -0.09335813 -0.927831
0.3581487 -0.09776937 -0.9285315
0.3550695 -0.1021643 -0.9292406
0.3518933 -0.1065452 -0.9299566
0.3486223 -0.1109145 -0.9306774
0.3452585 -0.1152748 -0.9314013
0.3418033 -0.1196287 -0.9321263
0.3382583 -0.123979 -0.9328507
0.3346246 -0.1283284 -0.9335728
0.3309032 -0.13268 -0.9342907
0.3270947 -0.1370367 -0.9350027
0.3231997 -0.1414015 -0.935707
0.3192186 -0.1457777 -0.9364018
0.3151515 -0.1501683 -0.9370854
0.3109983 -0.1545768 -0.9377559
0.3067588 -0.1590064 -0.9384114
0.3024326 -0.1634606 -0.9390501
0.2980191 -0.1679427 -0.9396701
0.2935176 -0.1724563 -0.9402692
0.2889271 -0.1770049 -0.9408456
0.2842465 -0.1815921 -0.941397
0.2794745 -0.1862215 -0.9419212
0.2746097 -0.1908967 -0.942416
0.2696506 -0.1956213 -0.942879
0.2645953 -0.2003991 -0.9433078
0.259442 -0.2052336 -0.9436996
0.2541887 -0.2101286 -0.944052
0.248833 -0.2150876 -0.9443619
0.2433728 -0.2201142 -0.9446266
0.2378054 -0.2252121 -0.9448429