# vtk DataFile Version 2.0
Written badly by Kevin Korner
ASCII
DATASET POLYDATA
POINTS 350 FLOAT
0 0 0
0.00286533 0 0
0.005730083 5.117025e-06 5.722377e-05
0.00859311 1.652155e-05 0.0001714969
0.01145327 3.537471e-05 0.0003425866
0.01430941 6.282641e-05 0.0005702019
0.01716041 0.0001000135 0.0008539949
0.02000514 0.0001480579 0.001193561
0.02284249 0.0002080651 0.001588442
0.02567137 0.000281122 0.002038123
0.0284907 0.0003682958 0.002542037
0.0312994 0.0004706322 0.003099569
0.03409643 0.0005891538 0.003710048
0.03688076 0.0007248588 0.00437276
0.03965139 0.0008787197 0.005086943
0.04240733 0.001051682 0.005851788
0.04514762 0.001244663 0.006666446
0.04787133 0.00145855 0.007530025
0.05057755 0.001694202 0.008441597
0.0532654 0.001952445 0.009400194
0.05593402 0.002234073 0.01040482
0.05858259 0.002539849 0.01145443
0.06121032 0.0028705 0.01254796
0.06381644 0.003226722 0.01368434
0.06640023 0.003609174 0.01486243
0.06896097 0.004018483 0.0160811
0.07149802 0.004455239 0.01733918
0.07401072 0.004919998 0.01863549
0.07649848 0.00541328 0.01996884
0.07896074 0.00593557 0.02133802
0.08139694 0.006487319 0.02274179
0.0838066 0.007068941 0.02417893
0.08618925 0.007680818 0.02564819
0.08854444 0.008323295 0.02714833
0.09087177 0.008996684 0.02867809
0.09317088 0.009701264 0.03023623
0.09544142 0.01043728 0.03182148
0.0976831 0.01120495 0.03343259
0.09989563 0.01200444 0.03506833
0.1020788 0.01283592 0.03672745
0.1042323 0.01369949 0.0384087
0.1063561 0.01459525 0.04011088
0.1084499 0.01552327 0.04183276
0.1105136 0.01648356 0.04357313
0.1125472 0.01747614 0.04533082
0.1145505 0.01850098 0.04710463
0.1165236 0.01955805 0.04889342
0.1184664 0.02064726 0.05069603
0.1203788 0.02176852 0.05251135
0.122261 0.02292171 0.05433826
0.124113 0.0241067 0.05617567
0.1259348 0.02532332 0.05802252
0.1277266 0.0265714 0.05987777
0.1294885 0.02785072 0.06174038
0.1312205 0.02916109 0.06360935
0.1329229 0.03050226 0.0654837
0.1345958 0.03187398 0.06736248
0.1362395 0.033276 0.06924476
0.137854 0.03470802 0.07112962
0.1394397 0.03616976 0.07301617
0.1409967 0.03766091 0.07490357
0.1425253 0.03918116 0.07679096
0.1440258 0.04073017 0.07867755
0.1454984 0.04230762 0.08056254
0.1469434 0.04391316 0.08244517
0.1483611 0.04554644 0.0843247
0.1497518 0.04720709 0.08620042
0.1511158 0.04889474 0.08807163
0.1524534 0.05060903 0.08993768
0.153765 0.05234957 0.09179792
0.1550508 0.05411599 0.09365173
0.1563112 0.05590789 0.09549852
0.1575465 0.05772489 0.09733771
0.1587571 0.0595666 0.09916876
0.1599433 0.06143261 0.1009911
0.1611054 0.06332253 0.1028043
0.1622439 0.06523597 0.1046079
0.163359 0.06717254 0.1064013
0.1644512 0.06913182 0.1081841
0.1655208 0.07111343 0.1099559
0.1665681 0.07311697 0.1117164
0.1675934 0.07514204 0.113465
0.1685973 0.07718826 0.1152015
0.1695799 0.07925523 0.1169255
0.1705417 0.08134257 0.1186367
0.171483 0.08344988 0.1203347
0.1724041 0.08557679 0.1220193
0.1733055 0.08772292 0.1236902
0.1741874 0.08988789 0.125347
0.1750503 0.09207134 0.1269896
0.1758943 0.09427288 0.1286178
0.17672 0.09649217 0.1302312
0.1775276 0.09872884 0.1318297
0.1783174 0.1009825 0.1334131
0.1790898 0.1032529 0.1349812
0.1798451 0.1055396 0.1365338
0.1805836 0.1078423 0.1380708
0.1813056 0.1101607 0.1395919
0.1820115 0.1124944 0.1410972
0.1827015 0.1148431 0.1425863
0.1833759 0.1172065 0.1440592
0.1840351 0.1195843 0.1455158
0.1846793 0.1219762 0.146956
0.1853088 0.1243818 0.1483797
0.185924 0.1268009 0.1497867
0.1865249 0.1292332 0.151177
0.187112 0.1316784 0.1525504
0.1876855 0.1341362 0.153907
0.1882457 0.1366064 0.1552466
0.1887928 0.1390887 0.1565692
0.189327 0.1415827 0.1578747
0.1898486 0.1440884 0.1591631
0.1903579 0.1466053 0.1604342
0.190855 0.1491333 0.1616881
0.1913402 0.1516721 0.1629246
0.1918137 0.1542216 0.1641438
0.1922758 0.1567813 0.1653455
0.1927265 0.1593513 0.1665298
0.1931663 0.1619311 0.1676965
0.1935951 0.1645206 0.1688456
0.1940133 0.1671196 0.1699772
0.1944209 0.1697279 0.171091
0.1948183 0.1723453 0.1721872
0.1952056 0.1749716 0.1732655
0.1955829 0.1776065 0.1743261
0.1959504 0.18025 0.1753687
0.1963083 0.1829018 0.1763935
0.1966567 0.1855617 0.1774002
0.1969958 0.1882296 0.1783889
0.1973257 0.1909053 0.1793595
0.1976466 0.1935886 0.1803119
0.1979586 0.1962793 0.1812461
0.1982619 0.1989773 0.1821619
0.1985565 0.2016825 0.1830594
0.1988427 0.2043946 0.1839384
0.1991204 0.2071136 0.1847988
0.19939 0.2098392 0.1856406
0.1996513 0.2125713 0.1864636
0.1999046 0.2153097 0.1872678
0.20015 0.2180544 0.1880531
0.2003876 0.2208051 0.1888193
0.2006174 0.2235618 0.1895664
0.2008395 0.2263242 0.1902942
0.2010541 0.2290923 0.1910026
0.2012613 0.2318659 0.1916915
0.201461 0.2346448 0.1923607
0.2016535 0.2374289 0.1930102
0.2018387 0.2402181 0.1936397
0.2020167 0.2430122 0.1942492
0.2021877 0.245811 0.1948384
0.2023516 0.2486146 0.1954072
0.2025086 0.2514226 0.1959554
0.2026586 0.2542349 0.1964829
0.2028018 0.2570515 0.1969895
0.2029382 0.2598721 0.197475
0.2030678 0.2626966 0.1979392
0.2031907 0.2655248 0.198382
0.203307 0.2683567 0.1988031
0.2034166 0.2711919 0.1992024
0.2035196 0.2740304 0.1995796
0.2036161 0.2768721 0.1999346
0.203706 0.2797166 0.2002671
0.2037894 0.2825639 0.2005769
0.2038663 0.2854138 0.2008639
0.2039368 0.2882661 0.2011278
0.2040008 0.2911206 0.2013685
0.2040584 0.2939771 0.2015858
0.2041096 0.2968354 0.2017794
0.2041543 0.2996953 0.2019492
0.2041927 0.3025567 0.2020951
0.2042246 0.3054192 0.2022169
0.2042502 0.3082828 0.2023145
0.2042694 0.3111471 0.2023878
0.2042821 0.314012 0.2024367
0.2042885 0.3168772 0.2024612
0.2042885 0.3197426 0.2024612
0.2042821 0.3226078 0.2024367
0.2042694 0.3254727 0.2023878
0.2042502 0.328337 0.2023145
0.2042246 0.3312005 0.2022169
0.2041927 0.3340631 0.2020951
0.2041543 0.3369245 0.2019492
0.2041096 0.3397844 0.2017794
0.2040584 0.3426427 0.2015858
0.2040008 0.3454992 0.2013685
0.2039368 0.3483537 0.2011278
0.2038663 0.351206 0.2008639
0.2037894 0.3540559 0.2005769
0.203706 0.3569032 0.2002671
0.2036161 0.3597477 0.1999346
0.2035196 0.3625893 0.1995796
0.2034166 0.3654279 0.1992024
0.203307 0.3682631 0.1988031
0.2031907 0.3710949 0.198382
0.2030678 0.3739232 0.1979392
0.2029382 0.3767477 0.197475
0.2028018 0.3795683 0.1969895
0.2026586 0.3823848 0.1964829
0.2025086 0.3851972 0.1959554
0.2023516 0.3880052 0.1954072
0.2021877 0.3908087 0.1948384
0.2020167 0.3936076 0.1942492
0.2018387 0.3964017 0.1936397
0.2016535 0.3991909 0.1930102
0.201461 0.401975 0.1923607
0.2012613 0.4047539 0.1916915
0.2010541 0.4075275 0.1910026
0.2008395 0.4102955 0.1902942
0.2006174 0.413058 0.1895664
0.2003876 0.4158146 0.1888193
0.20015 0.4185654 0.1880531
0.1999046 0.42131 0.1872678
0.1996513 0.4240485 0.1864636
0.19939 0.4267806 0.1856406
0.1991204 0.4295062 0.1847988
0.1988427 0.4322252 0.1839384
0.1985565 0.4349373 0.1830594
0.1982619 0.4376424 0.1821619
0.1979586 0.4403405 0.1812461
0.1976466 0.4430312 0.1803119
0.1973257 0.4457145 0.1793595
0.1969958 0.4483902 0.1783889
0.1966567 0.4510581 0.1774002
0.1963083 0.453718 0.1763935
0.1959504 0.4563698 0.1753687
0.1955829 0.4590132 0.1743261
0.1952056 0.4616482 0.1732655
0.1948183 0.4642745 0.1721872
0.1944209 0.4668918 0.171091
0.1940133 0.4695001 0.1699772
0.1935951 0.4720992 0.1688456
0.1931663 0.4746887 0.1676965
0.1927265 0.4772685 0.1665298
0.1922758 0.4798384 0.1653455
0.1918137 0.4823982 0.1641438
0.1913402 0.4849476 0.1629246
0.190855 0.4874865 0.1616881
0.1903579 0.4900145 0.1604342
0.1898486 0.4925314 0.1591631
0.189327 0.495037 0.1578747
0.1887928 0.4975311 0.1565692
0.1882457 0.5000134 0.1552466
0.1876855 0.5024835 0.153907
0.187112 0.5049413 0.1525504
0.1865249 0.5073865 0.151177
0.185924 0.5098188 0.1497867
0.1853088 0.5122379 0.1483797
0.1846793 0.5146436 0.146956
0.1840351 0.5170354 0.1455159
0.1833759 0.5194132 0.1440592
0.1827015 0.5217766 0.1425863
0.1820115 0.5241253 0.1410972
0.1813056 0.5264591 0.1395919
0.1805836 0.5287774 0.1380708
0.1798451 0.5310801 0.1365338
0.1790898 0.5333669 0.1349812
0.1783174 0.5356372 0.1334131
0.1775276 0.5378909 0.1318297
0.17672 0.5401276 0.1302312
0.1758943 0.5423469 0.1286178
0.1750503 0.5445484 0.1269896
0.1741874 0.5467319 0.125347
0.1733055 0.5488969 0.1236902
0.1724041 0.551043 0.1220193
0.171483 0.5531699 0.1203347
0.1705417 0.5552772 0.1186367
0.1695799 0.5573645 0.1169255
0.1685973 0.5594315 0.1152015
0.1675934 0.5614777 0.113465
0.1665681 0.5635028 0.1117164
0.1655208 0.5655063 0.1099559
0.1644512 0.567488 0.1081841
0.163359 0.5694472 0.1064013
0.1622439 0.5713838 0.1046079
0.1611054 0.5732972 0.1028043
0.1599433 0.5751872 0.1009911
0.1587571 0.5770532 0.09916876
0.1575465 0.5788949 0.09733771
0.1563112 0.5807119 0.09549852
0.1550508 0.5825038 0.09365173
0.153765 0.5842702 0.09179792
0.1524534 0.5860107 0.08993768
0.1511158 0.587725 0.08807163
0.1497518 0.5894127 0.08620042
0.1483611 0.5910733 0.0843247
0.1469434 0.5927066 0.08244517
0.1454984 0.5943121 0.08056254
0.1440258 0.5958896 0.07867755
0.1425253 0.5974386 0.07679096
0.1409967 0.5989589 0.07490357
0.1394397 0.60045 0.07301617
0.137854 0.6019118 0.07112962
0.1362395 0.6033438 0.06924476
0.1345958 0.6047458 0.06736248
0.1329229 0.6061175 0.0654837
0.1312205 0.6074587 0.06360935
0.1294885 0.608769 0.06174038
0.1277266 0.6100484 0.05987777
0.1259348 0.6112965 0.05802252
0.124113 0.6125131 0.05617567
0.122261 0.6136981 0.05433826
0.1203788 0.6148513 0.05251135
0.1184664 0.6159725 0.05069603
0.1165236 0.6170617 0.04889342
0.1145505 0.6181188 0.04710463
0.1125472 0.6191436 0.04533082
0.1105136 0.6201362 0.04357313
0.1084499 0.6210965 0.04183276
0.1063561 0.6220245 0.04011088
0.1042323 0.6229203 0.0384087
0.1020788 0.6237839 0.03672745
0.09989563 0.6246153 0.03506833
0.0976831 0.6254148 0.03343259
0.09544142 0.6261825 0.03182148
0.09317088 0.6269185 0.03023623
0.09087177 0.6276231 0.02867809
0.08854444 0.6282965 0.02714833
0.08618925 0.628939 0.02564819
0.0838066 0.6295508 0.02417893
0.08139694 0.6301325 0.02274179
0.07896074 0.6306842 0.02133802
0.07649848 0.6312065 0.01996884
0.07401072 0.6316998 0.01863549
0.07149802 0.6321645 0.01733918
0.06896097 0.6326013 0.0160811
0.06640023 0.6330106 0.01486243
0.06381644 0.6333931 0.01368434
0.06121032 0.6337493 0.01254796
0.05858259 0.6340799 0.01145443
0.05593402 0.6343857 0.01040482
0.0532654 0.6346673 0.009400194
0.05057755 0.6349256 0.008441597
0.04787133 0.6351612 0.007530025
0.04514762 0.6353751 0.006666446
0.04240733 0.6355681 0.005851788
0.03965139 0.6357411 0.005086943
0.03688076 0.6358949 0.00437276
0.03409643 0.6360306 0.003710048
0.0312994 0.6361491 0.003099569
0.0284907 0.6362515 0.002542037
0.02567137 0.6363387 0.002038123
0.02284249 0.6364117 0.001588442
0.02000514 0.6364717 0.001193561
0.01716041 0.6365198 0.0008539949
0.01430941 0.6365569 0.0005702019
0.01145327 0.6365844 0.0003425866
0.00859311 0.6366033 0.0001714969
0.005730083 0.6366147 5.722377e-05
0.00286533 0.6366198 0
0 0.6366198 0

LINES 349 1047
2 0 1
2 1 2
2 2 3
2 3 4
2 4 5
2 5 6
2 6 7
2 7 8
2 8 9
2 9 10
2 10 11
2 11 12
2 12 13
2 13 14
2 14 15
2 15 16
2 16 17
2 17 18
2 18 19
2 19 20
2 20 21
2 21 22
2 22 23
2 23 24
2 24 25
2 25 26
2 26 27
2 27 28
2 28 29
2 29 30
2 30 31
2 31 32
2 32 33
2 33 34
2 34 35
2 35 36
2 36 37
2 37 38
2 38 39
2 39 40
2 40 41
2 41 42
2 42 43
2 43 44
2 44 45
2 45 46
2 46 47
2 47 48
2 48 49
2 49 50
2 50 51
2 51 52
2 52 53
2 53 54
2 54 55
2 55 56
2 56 57
2 57 58
2 58 59
2 59 60
2 60 61
2 61 62
2 62 63
2 63 64
2 64 65
2 65 66
2 66 67
2 67 68
2 68 69
2 69 70
2 70 71
2 71 72
2 72 73
2 73 74
2 74 75
2 75 76
2 76 77
2 77 78
2 78 79
2 79 80
2 80 81
2 81 82
2 82 83
2 83 84
2 84 85
2 85 86
2 86 87
2 87 88
2 88 89
2 89 90
2 90 91
2 91 92
2 92 93
2 93 94
2 94 95
2 95 96
2 96 97
2 97 98
2 98 99
2 99 100
2 100 101
2 101 102
2 102 103
2 103 104
2 104 105
2 105 106
2 106 107
2 107 108
2 108 109
2 109 110
2 110 111
2 111 112
2 112 113
2 113 114
2 114 115
2 115 116
2 116 117
2 117 118
2 118 119
2 119 120
2 120 121
2 121 122
2 122 123
2 123 124
2 124 125
2 125 126
2 126 127
2 127 128
2 128 129
2 129 130
2 130 131
2 131 132
2 132 133
2 133 134
2 134 135
2 135 136
2 136 137
2 137 138
2 138 139
2 139 140
2 140 141
2 141 142
2 142 143
2 143 144
2 144 145
2 145 146
2 146 147
2 147 148
2 148 149
2 149 150
2 150 151
2 151 152
2 152 153
2 153 154
2 154 155
2 155 156
2 156 157
2 157 158
2 158 159
2 159 160
2 160 161
2 161 162
2 162 163
2 163 164
2 164 165
2 165 166
2 166 167
2 167 168
2 168 169
2 169 170
2 170 171
2 171 172
2 172 173
2 173 174
2 174 175
2 175 176
2 176 177
2 177 178
2 178 179
2 179 180
2 180 181
2 181 182
2 182 183
2 183 184
2 184 185
2 185 186
2 186 187
2 187 188
2 188 189
2 189 190
2 190 191
2 191 192
2 192 193
2 193 194
2 194 195
2 195 196
2 196 197
2 197 198
2 198 199
2 199 200
2 200 201
2 201 202
2 202 203
2 203 204
2 204 205
2 205 206
2 206 207
2 207 208
2 208 209
2 209 210
2 210 211
2 211 212
2 212 213
2 213 214
2 214 215
2 215 216
2 216 217
2 217 218
2 218 219
2 219 220
2 220 221
2 221 222
2 222 223
2 223 224
2 224 225
2 225 226
2 226 227
2 227 228
2 228 229
2 229 230
2 230 231
2 231 232
2 232 233
2 233 234
2 234 235
2 235 236
2 236 237
2 237 238
2 238 239
2 239 240
2 240 241
2 241 242
2 242 243
2 243 244
2 244 245
2 245 246
2 246 247
2 247 248
2 248 249
2 249 250
2 250 251
2 251 252
2 252 253
2 253 254
2 254 255
2 255 256
2 256 257
2 257 258
2 258 259
2 259 260
2 260 261
2 261 262
2 262 263
2 263 264
2 264 265
2 265 266
2 266 267
2 267 268
2 268 269
2 269 270
2 270 271
2 271 272
2 272 273
2 273 274
2 274 275
2 275 276
2 276 277
2 277 278
2 278 279
2 279 280
2 280 281
2 281 282
2 282 283
2 283 284
2 284 285
2 285 286
2 286 287
2 287 288
2 288 289
2 289 290
2 290 291
2 291 292
2 292 293
2 293 294
2 294 295
2 295 296
2 296 297
2 297 298
2 298 299
2 299 300
2 300 301
2 301 302
2 302 303
2 303 304
2 304 305
2 305 306
2 306 307
2 307 308
2 308 309
2 309 310
2 310 311
2 311 312
2 312 313
2 313 314
2 314 315
2 315 316
2 316 317
2 317 318
2 318 319
2 319 320
2 320 321
2 321 322
2 322 323
2 323 324
2 324 325
2 325 326
2 326 327
2 327 328
2 328 329
2 329 330
2 330 331
2 331 332
2 332 333
2 333 334
2 334 335
2 335 336
2 336 337
2 337 338
2 338 339
2 339 340
2 340 341
2 341 342
2 342 343
2 343 344
2 344 345
2 345 346
2 346 347
2 347 348
2 348 349


POINT_DATA 350
SCALARS a FLOAT 1
LOOKUP_TABLE default
0.0005894628
0.0005894628
0.0005894628
0.0005894628
0.0005894628
0.0005894628
0.0005894628
0.0005894628
0.0005894628
0.0005894628
0.0005894628
0.0005894628
0.0005894628
0.0005894628
0.0005894628
0.0005894628
0.0005894628
0.0005894628
0.0005894628
0.0005894628
0.0005894628
0.0005894628
0.0005894628
0.0005894628
0.0005894628
0.0005894628
0.0005894628
0.0005894628
0.0005894628
0.0005894628
0.0005894628
0.0005894628
0.0005894628
0.0005894628
0.0005894628
0.0005894628
0.0005894628
0.0005894628
0.0005894628
0.0005894628
0.0005894628
0.0005894628
0.0005894628
0.0005894628
0.0005894628
0.0005894628
0.0005894628
0.0005894628
0.0005894628
0.0005894628
0.0005894628
0.0005894628
0.0005894628
0.0005894628
0.0005894628
0.0005894628
0.0005894628
0.0005894628
0.0005894628
0.0005894628
0.0005894628
0.0005894628
0.0005894628
0.0005894628
0.0005894628
0.0005894628
0.0005894628
0.0005894628
0.0005894628
0.0005894628
0.0005894628
0.0005894628
0.0005894628
0.0005894628
0.0005894628
0.0005894628
0.0005894628
0.0005894628
0.0005894628
0.0005894628
0.0005894628
0.0005894628
0.0005894628
0.0005894628
0.0005894628
0.0005894628
0.0005894628
0.0005894628
0.0005894628
0.0005894628
0.0005894628
0.0005894628
0.0005894628
0.0005894628
0.0005894628
0.0005894628
0.0005894628
0.0005894628
0.0005894628
0.0005894628
0.0005894628
0.0005894628
0.0005894628
0.0005894628
0.0005894628
0.0005894628
0.0005894628
0.0005894628
0.0005894628
0.0005894628
0.0005894628
0.0005894628
0.0005894628
0.0005894628
0.0005894628
0.0005894628
0.0005894628
0.0005894628
0.0005894628
0.0005894628
0.0005894628
0.0005894628
0.0005894628
0.0005894628
0.0005894628
0.0005894628
0.0005894628
0.0005894628
0.0005894628
0.0005894628
0.0005894628
0.0005894628
0.0005894628
0.0005894628
0.0005894628
0.0005894628
0.0005894628
0.0005894628
0.0005894628
0.0005894628
0.0005894628
0.0005894628
0.0005894628
0.0005894628
0.0005894628
0.0005894628
0.0005894628
0.0005894628
0.0005894628
0.0005894628
0.0005894628
0.0005894628
0.0005894628
0.0005894628
0.0005894628
0.0005894628
0.0005894628
0.0005894628
0.0005894628
0.0005894628
0.0005894628
0.0005894628
0.0005894628
0.0005894628
0.0005894628
0.0005894628
0.0005894628
0.0005894628
0.0005894628
0.0005894628
0.0005894628
0.0005894628
0.0005894628
0.0005894628
0.0005894628
0.0005894628
0.0005894628
0.0005894628
0.0005894628
0.0005894628
0.0005894628
0.0005894628
0.0005894628
0.0005894628
0.0005894628
0.0005894628
0.0005894628
0.0005894628
0.0005894628
0.0005894628
0.0005894628
0.0005894628
0.0005894628
0.0005894628
0.0005894628
0.0005894628
0.0005894628
0.0005894628
0.0005894628
0.0005894628
0.0005894628
0.0005894628
0.0005894628
0.0005894628
0.0005894628
0.0005894628
0.0005894628
0.0005894628
0.0005894628
0.0005894628
0.0005894628
0.0005894628
0.0005894628
0.0005894628
0.0005894628
0.0005894628
0.0005894628
0.0005894628
0.0005894628
0.0005894628
0.0005894628
0.0005894628
0.0005894628
0.0005894628
0.0005894628
0.0005894628
0.0005894628
0.0005894628
0.0005894628
0.0005894628
0.0005894628
0.0005894628
0.0005894628
0.0005894628
0.0005894628
0.0005894628
0.0005894628
0.0005894628
0.0005894628
0.0005894628
0.0005894628
0.0005894628
0.0005894628
0.0005894628
0.0005894628
0.0005894628
0.0005894628
0.0005894628
0.0005894628
0.0005894628
0.0005894628
0.0005894628
0.0005894628
0.0005894628
0.0005894628
0.0005894628
0.0005894628
0.0005894628
0.0005894628
0.0005894628
0.0005894628
0.0005894628
0.0005894628
0.0005894628
0.0005894628
0.0005894628
0.0005894628
0.0005894628
0.0005894628
0.0005894628
0.0005894628
0.0005894628
0.0005894628
0.0005894628
0.0005894628
0.0005894628
0.0005894628
0.0005894628
0.0005894628
0.0005894628
0.0005894628
0.0005894628
0.0005894628
0.0005894628
0.0005894628
0.0005894628
0.0005894628
0.0005894628
0.0005894628
0.0005894628
0.0005894628
0.0005894628
0.0005894628
0.0005894628
0.0005894628
0.0005894628
0.0005894628
0.0005894628
0.0005894628
0.0005894628
0.0005894628
0.0005894628
0.0005894628
0.0005894628
0.0005894628
0.0005894628
0.0005894628
0.0005894628
0.0005894628
0.0005894628
0.0005894628
0.0005894628
0.0005894628
0.0005894628
0.0005894628
0.0005894628
0.0005894628
0.0005894628
0.0005894628
0.0005894628
0.0005894628
0.0005894628
0.0005894628
0.0005894628
0.0005894628
0.0005894628
0.0005894628
0.0005894628
0.0005894628
0.0005894628
0.0005894628
0.0005894628
0.0005894628
0.0005894628
0.0005894628
0.0005894628
0.0005894628
0.0005894628
0.0005894628
0.0005894628
0.0005894628
0.0005894628
0.0005894628
0.0005894628
0.0005894628
0.0005894628
0.0005894628
0.0005894628
0.0005894628
0.0005894628


SCALARS b FLOAT 1
LOOKUP_TABLE default
0.04420971
0.04420971
0.04420971
0.04420971
0.04420971
0.04420971
0.04420971
0.04420971
0.04420971
0.04420971
0.04420971
0.04420971
0.04420971
0.04420971
0.04420971
0.04420971
0.04420971
0.04420971
0.04420971
0.04420971
0.04420971
0.04420971
0.04420971
0.04420971
0.04420971
0.04420971
0.04420971
0.04420971
0.04420971
0.04420971
0.04420971
0.04420971
0.04420971
0.04420971
0.04420971
0.04420971
0.04420971
0.04420971
0.04420971
0.04420971
0.04420971
0.04420971
0.04420971
0.04420971
0.04420971
0.04420971
0.04420971
0.04420971
0.04420971
0.04420971
0.04420971
0.04420971
0.04420971
0.04420971
0.04420971
0.04420971
0.04420971
0.04420971
0.04420971
0.04420971
0.04420971
0.04420971
0.04420971
0.04420971
0.04420971
0.04420971
0.04420971
0.04420971
0.04420971
0.04420971
0.04420971
0.04420971
0.04420971
0.04420971
0.04420971
0.04420971
0.04420971
0.04420971
0.04420971
0.04420971
0.04420971
0.04420971
0.04420971
0.04420971
0.04420971
0.04420971
0.04420971
0.04420971
0.04420971
0.04420971
0.04420971
0.04420971
0.04420971
0.04420971
0.04420971
0.04420971
0.04420971
0.04420971
0.04420971
0.04420971
0.04420971
0.04420971
0.04420971
0.04420971
0.04420971
0.04420971
0.04420971
0.04420971
0.04420971
0.04420971
0.04420971
0.04420971
0.04420971
0.04420971
0.04420971
0.04420971
0.04420971
0.04420971
0.04420971
0.04420971
0.04420971
0.04420971
0.04420971
0.04420971
0.04420971
0.04420971
0.04420971
0.04420971
0.04420971
0.04420971
0.04420971
0.04420971
0.04420971
0.04420971
0.04420971
0.04420971
0.04420971
0.04420971
0.04420971
0.04420971
0.04420971
0.04420971
0.04420971
0.04420971
0.04420971
0.04420971
0.04420971
0.04420971
0.04420971
0.04420971
0.04420971
0.04420971
0.04420971
0.04420971
0.04420971
0.04420971
0.04420971
0.04420971
0.04420971
0.04420971
0.04420971
0.04420971
0.04420971
0.04420971
0.04420971
0.04420971
0.04420971
0.04420971
0.04420971
0.04420971
0.04420971
0.04420971
0.04420971
0.04420971
0.04420971
0.04420971
0.04420971
0.04420971
0.04420971
0.04420971
0.04420971
0.04420971
0.04420971
0.04420971
0.04420971
0.04420971
0.04420971
0.04420971
0.04420971
0.04420971
0.04420971
0.04420971
0.04420971
0.04420971
0.04420971
0.04420971
0.04420971
0.04420971
0.04420971
0.04420971
0.04420971
0.04420971
0.04420971
0.04420971
0.04420971
0.04420971
0.04420971
0.04420971
0.04420971
0.04420971
0.04420971
0.04420971
0.04420971
0.04420971
0.04420971
0.04420971
0.04420971
0.04420971
0.04420971
0.04420971
0.04420971
0.04420971
0.04420971
0.04420971
0.04420971
0.04420971
0.04420971
0.04420971
0.04420971
0.04420971
0.04420971
0.04420971
0.04420971
0.04420971
0.04420971
0.04420971
0.04420971
0.04420971
0.04420971
0.04420971
0.04420971
0.04420971
0.04420971
0.04420971
0.04420971
0.04420971
0.04420971
0.04420971
0.04420971
0.04420971
0.04420971
0.04420971
0.04420971
0.04420971
0.04420971
0.04420971
0.04420971
0.04420971
0.04420971
0.04420971
0.04420971
0.04420971
0.04420971
0.04420971
0.04420971
0.04420971
0.04420971
0.04420971
0.04420971
0.04420971
0.04420971
0.04420971
0.04420971
0.04420971
0.04420971
0.04420971
0.04420971
0.04420971
0.04420971
0.04420971
0.04420971
0.04420971
0.04420971
0.04420971
0.04420971
0.04420971
0.04420971
0.04420971
0.04420971
0.04420971
0.04420971
0.04420971
0.04420971
0.04420971
0.04420971
0.04420971
0.04420971
0.04420971
0.04420971
0.04420971
0.04420971
0.04420971
0.04420971
0.04420971
0.04420971
0.04420971
0.04420971
0.04420971
0.04420971
0.04420971
0.04420971
0.04420971
0.04420971
0.04420971
0.04420971
0.04420971
0.04420971
0.04420971
0.04420971
0.04420971
0.04420971
0.04420971
0.04420971
0.04420971
0.04420971
0.04420971
0.04420971
0.04420971
0.04420971
0.04420971
0.04420971
0.04420971
0.04420971
0.04420971
0.04420971
0.04420971
0.04420971
0.04420971
0.04420971
0.04420971
0.04420971
0.04420971
0.04420971
0.04420971
0.04420971
0.04420971
0.04420971
0.04420971
0.04420971
0.04420971


VECTORS d1 FLOAT
0 0.07877228 0.9968926
-0.02004973 0.09925166 0.9948604
-0.04007101 0.11963 0.9920096
-0.06004324 0.1398866 0.9883454
-0.07994598 0.1600013 0.9838741
-0.09975902 0.179954 0.9786034
-0.1194624 0.1997251 0.9725423
-0.1390364 0.2192956 0.9657009
-0.1584619 0.2386466 0.9580906
-0.1777199 0.2577601 0.9497238
-0.196792 0.2766183 0.9406143
-0.2156602 0.2952042 0.9307766
-0.2343071 0.3135014 0.9202266
-0.2527159 0.3314942 0.9089809
-0.2708703 0.3491674 0.8970571
-0.2887546 0.3665068 0.8844736
-0.3063539 0.3834986 0.8712497
-0.3236538 0.4001301 0.8574055
-0.3406407 0.416389 0.8429615
-0.3573018 0.4322643 0.827939
-0.3736248 0.4477452 0.81236
-0.3895984 0.4628222 0.7962466
-0.405212 0.4774864 0.7796217
-0.4204556 0.4917298 0.7625083
-0.4353202 0.505545 0.7449299
-0.4497975 0.5189258 0.72691
-0.4638799 0.5318665 0.7084726
-0.4775607 0.5443623 0.6896415
-0.490834 0.5564092 0.6704407
-0.5036944 0.5680041 0.6508943
-0.5161375 0.5791444 0.631026
-0.5281597 0.5898285 0.6108598
-0.5397579 0.6000554 0.5904193
-0.5509298 0.6098248 0.569728
-0.561674 0.6191373 0.548809
-0.5719894 0.6279939 0.5276853
-0.5818759 0.6363963 0.5063794
-0.5913339 0.6443471 0.4849134
-0.6003644 0.651849 0.4633093
-0.608969 0.6589057 0.4415881
-0.6171498 0.6655212 0.4197709
-0.6249097 0.6717001 0.397878
-0.6322518 0.6774475 0.375929
-0.6391798 0.6827688 0.3539434
-0.645698 0.68767 0.3319397
-0.6518111 0.6921575 0.309936
-0.6575239 0.6962379 0.2879499
-0.662842 0.6999182 0.2659981
-0.6677711 0.7032059 0.244097
-0.6723173 0.7061084 0.222262
-0.6764871 0.7086337 0.2005082
-0.6802871 0.7107898 0.1788499
-0.6837243 0.7125851 0.1573007
-0.6868059 0.714028 0.1358736
-0.6895392 0.7151272 0.114581
-0.6919317 0.7158913 0.09343471
-0.6939913 0.7163293 0.07244573
-0.6957257 0.71645 0.05162456
-0.697143 0.7162624 0.03098106
-0.6982511 0.7157756 0.01052444
-0.6990582 0.7149985 -0.00973664
-0.6995725 0.7139402 -0.02979414
-0.6998022 0.7126098 -0.04964058
-0.6997556 0.7110161 -0.06926906
-0.6994408 0.7091682 -0.08867321
-0.6988662 0.7070749 -0.1078472
-0.69804 0.704745 -0.1267858
-0.6969703 0.7021872 -0.145484
-0.6956652 0.69941 -0.1639377
-0.6941328 0.696422 -0.182143
-0.6923811 0.6932314 -0.2000965
-0.690418 0.6898466 -0.2177952
-0.6882512 0.6862755 -0.2352367
-0.6858884 0.6825261 -0.2524187
-0.6833373 0.6786061 -0.2693397
-0.6806053 0.6745232 -0.2859981
-0.6776998 0.6702846 -0.302393
-0.6746279 0.6658978 -0.3185237
-0.6713967 0.6613697 -0.33439
-0.6680131 0.6567072 -0.3499917
-0.664484 0.6519169 -0.365329
-0.660816 0.6470055 -0.3804027
-0.6570155 0.641979 -0.3952133
-0.6530889 0.6368438 -0.409762
-0.6490423 0.6316056 -0.42405
-0.6448819 0.6262702 -0.4380787
-0.6406134 0.620843 -0.45185
-0.6362425 0.6153294 -0.4653656
-0.6317749 0.6097345 -0.4786276
-0.6272158 0.6040631 -0.4916382
-0.6225706 0.5983199 -0.5043998
-0.6178442 0.5925096 -0.5169148
-0.6130417 0.5866362 -0.5291859
-0.6081678 0.5807041 -0.5412159
-0.6032271 0.574717 -0.5530076
-0.598224 0.5686788 -0.5645639
-0.593163 0.5625929 -0.5758879
-0.5880481 0.5564626 -0.5869827
-0.5828835 0.5502912 -0.5978515
-0.577673 0.5440816 -0.6084975
-0.5724203 0.5378366 -0.6189239
-0.5671291 0.5315588 -0.6291342
-0.561803 0.5252506 -0.6391317
-0.5564452 0.5189142 -0.6489197
-0.551059 0.5125519 -0.6585017
-0.5456476 0.5061654 -0.6678811
-0.540214 0.4997566 -0.6770614
-0.5347612 0.493327 -0.6860459
-0.5292918 0.4868781 -0.694838
-0.5238087 0.4804111 -0.7034413
-0.5183144 0.4739272 -0.711859
-0.5128114 0.4674273 -0.7200945
-0.5073023 0.4609123 -0.7281512
-0.5017893 0.4543829 -0.7360324
-0.4962748 0.4478396 -0.7437412
-0.4907609 0.4412828 -0.7512811
-0.4852497 0.4347129 -0.758655
-0.4797434 0.4281299 -0.7658662
-0.474244 0.4215339 -0.7729177
-0.4687534 0.4149249 -0.7798126
-0.4632735 0.4083026 -0.7865537
-0.4578063 0.4016667 -0.7931439
-0.4523535 0.3950168 -0.7995861
-0.446917 0.3883524 -0.8058831
-0.4414987 0.3816729 -0.8120374
-0.4361001 0.3749775 -0.8180517
-0.4307232 0.3682655 -0.8239284
-0.4253697 0.3615358 -0.8296701
-0.4200414 0.3547877 -0.835279
-0.41474 0.3480199 -0.8407573
-0.4094673 0.3412313 -0.8461074
-0.4042251 0.3344208 -0.8513312
-0.3990153 0.327587 -0.8564307
-0.3938398 0.3207287 -0.8614078
-0.3887004 0.3138443 -0.8662643
-0.3835991 0.3069324 -0.8710018
-0.3785381 0.2999914 -0.8756221
-0.3735194 0.2930199 -0.8801265
-0.3685452 0.2860162 -0.8845164
-0.3636178 0.2789785 -0.8887931
-0.3587395 0.2719052 -0.8929577
-0.353913 0.2647945 -0.8970114
-0.3491408 0.2576447 -0.900955
-0.3444257 0.2504538 -0.9047894
-0.3397707 0.2432202 -0.9085152
-0.3351787 0.2359419 -0.912133
-0.3306532 0.228617 -0.9156433
-0.3261976 0.2212438 -0.9190464
-0.3218156 0.2138202 -0.9223425
-0.3175112 0.2063445 -0.9255315
-0.3132885 0.1988148 -0.9286135
-0.309152 0.1912294 -0.9315881
-0.3051065 0.1835864 -0.9344549
-0.3011572 0.1758842 -0.9372135
-0.2973095 0.1681211 -0.9398629
-0.2935692 0.1602958 -0.9424024
-0.2899427 0.1524067 -0.9448309
-0.2864364 0.1444528 -0.9471471
-0.2830576 0.1364331 -0.9493495
-0.2798139 0.1283467 -0.9514364
-0.2767132 0.1201933 -0.9534062
-0.273764 0.1119727 -0.9552567
-0.2709754 0.1036853 -0.9569857
-0.2683566 0.09533189 -0.9585909
-0.2659175 0.08691375 -0.9600697
-0.263668 0.07843289 -0.9614195
-0.2616184 0.06989201 -0.9626375
-0.259779 0.06129457 -0.9637208
-0.2581598 0.0526449 -0.9646668
-0.2567704 0.04394817 -0.9654727
-0.2556198 0.0352105 -0.966136
-0.2547159 0.02643881 -0.9666544
-0.2540652 0.01764084 -0.9670262
-0.2536728 0.008824961 -0.9672498
-0.2535416 2.111622e-09 -0.9673245
-0.2536728 -0.008824957 -0.9672498
-0.2540652 -0.01764084 -0.9670262
-0.2547159 -0.02643881 -0.9666544
-0.2556198 -0.03521049 -0.966136
-0.2567704 -0.04394817 -0.9654727
-0.2581598 -0.05264489 -0.9646668
-0.259779 -0.06129457 -0.9637208
-0.2616184 -0.06989201 -0.9626375
-0.263668 -0.07843289 -0.9614195
-0.2659175 -0.08691374 -0.9600697
-0.2683566 -0.09533188 -0.9585909
-0.2709754 -0.1036853 -0.9569857
-0.273764 -0.1119727 -0.9552567
-0.2767132 -0.1201933 -0.9534062
-0.2798139 -0.1283467 -0.9514364
-0.2830576 -0.1364331 -0.9493495
-0.2864364 -0.1444528 -0.9471471
-0.2899427 -0.1524067 -0.9448309
-0.2935692 -0.1602958 -0.9424024
-0.2973095 -0.1681211 -0.9398629
-0.3011572 -0.1758842 -0.9372135
-0.3051065 -0.1835864 -0.9344549
-0.309152 -0.1912294 -0.9315881
-0.3132885 -0.1988148 -0.9286135
-0.3175112 -0.2063445 -0.9255315
-0.3218156 -0.2138202 -0.9223425
-0.3261976 -0.2212438 -0.9190464
-0.3306532 -0.228617 -0.9156433
-0.3351787 -0.2359419 -0.912133
-0.3397707 -0.2432202 -0.9085152
-0.3444257 -0.2504538 -0.9047894
-0.3491408 -0.2576447 -0.900955
-0.353913 -0.2647945 -0.8970114
-0.3587395 -0.2719052 -0.8929577
-0.3636178 -0.2789785 -0.8887931
-0.3685452 -0.2860161 -0.8845164
-0.3735194 -0.2930199 -0.8801265
-0.3785381 -0.2999914 -0.8756221
-0.3835991 -0.3069324 -0.8710018
-0.3887004 -0.3138443 -0.8662643
-0.3938398 -0.3207287 -0.8614078
-0.3990153 -0.327587 -0.8564307
-0.4042251 -0.3344208 -0.8513312
-0.4094673 -0.3412313 -0.8461074
-0.41474 -0.3480199 -0.8407573
-0.4200414 -0.3547877 -0.835279
-0.4253697 -0.3615358 -0.8296701
-0.4307232 -0.3682655 -0.8239284
-0.4361001 -0.3749775 -0.8180517
-0.4414987 -0.3816729 -0.8120374
-0.446917 -0.3883524 -0.8058831
-0.4523535 -0.3950168 -0.7995862
-0.4578063 -0.4016667 -0.7931439
-0.4632735 -0.4083026 -0.7865537
-0.4687534 -0.4149249 -0.7798126
-0.474244 -0.4215339 -0.7729177
-0.4797434 -0.4281299 -0.7658662