# vtk DataFile Version 2.0
Written badly by Kevin Korner
ASCII
DATASET POLYDATA
POINTS 350 FLOAT
0 0 0
0.00286533 0 0
0.005727995 -9.17576e-05 8.268761e-05
0.008582473 -0.0002739328 0.0002526405
0.01142296 -0.0005446979 0.0005142741
0.01424339 -0.0009017171 0.0008717932
0.01703748 -0.00134213 0.001329143
0.01979878 -0.00186254 0.001889961
0.02252068 -0.002459011 0.002557522
0.02519646 -0.003127065 0.003334695
0.02781939 -0.003861695 0.004223892
0.03038273 -0.004657376 0.005227027
0.03287983 -0.005508091 0.006345473
0.03530414 -0.006407362 0.00758003
0.03764934 -0.007348285 0.008930892
0.03990934 -0.008323579 0.01039763
0.04207838 -0.009325638 0.01197916
0.04415107 -0.01034659 0.01367378
0.04612245 -0.01137835 0.01547911
0.04798806 -0.01241271 0.01739216
0.04974393 -0.01344138 0.01940929
0.0513867 -0.0144561 0.02152632
0.05291357 -0.01544866 0.02373846
0.05432238 -0.01641102 0.02604047
0.05561159 -0.01733536 0.0284266
0.05678033 -0.01821413 0.03089073
0.05782833 -0.01904014 0.03342638
0.05875597 -0.01980658 0.0360268
0.05956424 -0.0205071 0.03868501
0.06025471 -0.02113586 0.04139389
0.06082949 -0.02168749 0.04414624
0.06129122 -0.02215721 0.04693484
0.06164299 -0.02254079 0.04975251
0.06188833 -0.02283456 0.05259216
0.06203113 -0.02303544 0.05544687
0.06207562 -0.02314091 0.05830991
0.06202627 -0.023149 0.0611748
0.06188781 -0.0230583 0.06403535
0.06166509 -0.02286789 0.06688565
0.06136313 -0.02257735 0.06972018
0.06098699 -0.02218673 0.07253372
0.06054177 -0.02169647 0.07532147
0.06003257 -0.02110744 0.07807898
0.05946444 -0.02042084 0.0808022
0.05884234 -0.01963819 0.08348745
0.05817115 -0.0187613 0.08613144
0.0574556 -0.01779222 0.08873125
0.05670026 -0.01673321 0.0912843
0.05590957 -0.01558671 0.09378839
0.05508773 -0.01435531 0.09624162
0.05423879 -0.01304171 0.09864243
0.05336659 -0.0116487 0.1009895
0.05247474 -0.01017914 0.1032819
0.05156667 -0.00863592 0.1055189
0.05064557 -0.007021955 0.1076999
0.04971445 -0.005340164 0.1098247
0.04877608 -0.003593447 0.1118932
0.04783307 -0.001784674 0.1139054
0.0468878 8.332609e-05 0.1158617
0.04594246 0.002007779 0.1177625
0.04499908 0.003985974 0.1196083
0.0440595 0.006015268 0.1213997
0.04312538 0.008093096 0.1231376
0.04219825 0.01021697 0.1248227
0.04127947 0.0123845 0.126456
0.04037025 0.01459337 0.1280386
0.03947168 0.01684135 0.1295713
0.03858474 0.01912631 0.1310553
0.03771026 0.02144621 0.1324918
0.03684898 0.02379909 0.1338819
0.03600153 0.02618309 0.1352267
0.03516847 0.02859644 0.1365274
0.03435024 0.03103743 0.1377852
0.03354721 0.03350446 0.1390014
0.0327597 0.035996 0.140177
0.03198794 0.0385106 0.1413134
0.03123209 0.0410469 0.1424116
0.03049228 0.04360358 0.1434728
0.02976858 0.04617942 0.1444982
0.029061 0.04877327 0.1454888
0.02836952 0.05138401 0.1464459
0.02769409 0.05401062 0.1473705
0.0270346 0.05665211 0.1482636
0.02639095 0.05930758 0.1491264
0.02576297 0.06197615 0.1499597
0.0251505 0.06465701 0.1507647
0.02455334 0.06734939 0.1515423
0.02397128 0.07005256 0.1522934
0.02340408 0.07276586 0.1530189
0.02285152 0.07548864 0.1537198
0.02231332 0.07822031 0.1543969
0.02178924 0.08096029 0.1550511
0.02127899 0.08370808 0.1556831
0.02078231 0.08646317 0.1562937
0.02029889 0.08922509 0.1568838
0.01982847 0.09199342 0.157454
0.01937075 0.09476775 0.1580051
0.01892543 0.09754769 0.1585378
0.01849223 0.1003329 0.1590527
0.01807085 0.103123 0.1595505
0.01766101 0.1059177 0.1600317
0.01726241 0.1087168 0.1604971
0.01687478 0.1115199 0.1609472
0.01649782 0.1143268 0.1613824
0.01613126 0.1171372 0.1618035
0.01577483 0.1199509 0.1622108
0.01542825 0.1227678 0.1626049
0.01509127 0.1255875 0.1629863
0.01476362 0.12841 0.1633554
0.01444504 0.1312351 0.1637127
0.0141353 0.1340626 0.1640585
0.01383414 0.1368923 0.1643934
0.01354134 0.1397241 0.1647176
0.01325667 0.1425579 0.1650316
0.01297991 0.1453936 0.1653357
0.01271083 0.148231 0.1656302
0.01244924 0.1510701 0.1659156
0.01219493 0.1539107 0.166192
0.0119477 0.1567527 0.1664598
0.01170737 0.1595962 0.1667193
0.01147376 0.1624409 0.1669708
0.0112467 0.1652868 0.1672144
0.01102601 0.1681338 0.1674506
0.01081153 0.1709819 0.1676794
0.01060312 0.173831 0.1679011
0.01040061 0.1766811 0.168116
0.01020388 0.1795321 0.1683242
0.01001277 0.1823839 0.168526
0.009827168 0.1852365 0.1687214
0.009646942 0.1880899 0.1689108
0.009471973 0.190944 0.1690942
0.009302147 0.1937988 0.1692719
0.009137356 0.1966542 0.1694439
0.008977495 0.1995102 0.1696104
0.008822466 0.2023668 0.1697716
0.008672175 0.2052239 0.1699276
0.008526532 0.2080816 0.1700785
0.008385452 0.2109397 0.1702243
0.008248854 0.2137983 0.1703653
0.008116662 0.2166573 0.1705016
0.007988804 0.2195168 0.1706331
0.007865209 0.2223766 0.1707601
0.007745813 0.2252369 0.1708826
0.007630555 0.2280974 0.1710007
0.007519377 0.2309583 0.1711144
0.007412223 0.2338196 0.1712239
0.007309042 0.2366811 0.1713292
0.007209785 0.2395429 0.1714303
0.007114407 0.242405 0.1715274
0.007022865 0.2452674 0.1716205
0.006935119 0.24813 0.1717096
0.006851131 0.2509928 0.1717949
0.006770866 0.2538559 0.1718762
0.006694291 0.2567191 0.1719538
0.006621377 0.2595826 0.1720276
0.006552094 0.2624462 0.1720976
0.006486417 0.26531 0.172164
0.006424321 0.268174 0.1722267
0.006365785 0.2710381 0.1722857
0.006310787 0.2739024 0.1723412
0.006259309 0.2767668 0.172393
0.006211333 0.2796313 0.1724413
0.006166845 0.2824959 0.1724861
0.006125829 0.2853607 0.1725274
0.006088273 0.2882255 0.1725651
0.006054166 0.2910904 0.1725994
0.006023497 0.2939554 0.1726302
0.005996258 0.2968205 0.1726576
0.00597244 0.2996856 0.1726815
0.005952037 0.3025508 0.172702
0.005935043 0.305416 0.172719
0.005921453 0.3082813 0.1727327
0.005911264 0.3111466 0.1727429
0.005904473 0.3140119 0.1727497
0.005901078 0.3168772 0.1727531
0.005901078 0.3197426 0.1727531
0.005904473 0.3226079 0.1727497
0.005911264 0.3254732 0.1727429
0.005921453 0.3283385 0.1727327
0.005935043 0.3312037 0.172719
0.005952037 0.334069 0.172702
0.00597244 0.3369342 0.1726815
0.005996258 0.3397993 0.1726576
0.006023497 0.3426644 0.1726302
0.006054166 0.3455294 0.1725994
0.006088273 0.3483943 0.1725651
0.006125829 0.3512591 0.1725274
0.006166845 0.3541239 0.1724861
0.006211333 0.3569885 0.1724413
0.006259309 0.359853 0.172393
0.006310787 0.3627174 0.1723412
0.006365785 0.3655817 0.1722857
0.006424321 0.3684458 0.1722267
0.006486417 0.3713098 0.172164
0.006552094 0.3741736 0.1720976
0.006621377 0.3770372 0.1720276
0.006694291 0.3799007 0.1719538
0.006770866 0.3827639 0.1718762
0.006851131 0.385627 0.1717949
0.006935119 0.3884898 0.1717096
0.007022865 0.3913524 0.1716205
0.007114408 0.3942147 0.1715274
0.007209785 0.3970768 0.1714303
0.007309042 0.3999387 0.1713292
0.007412223 0.4028002 0.1712239
0.007519377 0.4056614 0.1711144
0.007630556 0.4085223 0.1710007
0.007745814 0.4113829 0.1708826
0.007865209 0.4142431 0.1707601
0.007988804 0.417103 0.1706331
0.008116663 0.4199624 0.1705016
0.008248854 0.4228215 0.1703653
0.008385452 0.4256801 0.1702243
0.008526532 0.4285382 0.1700785
0.008672175 0.4313958 0.1699276
0.008822466 0.434253 0.1697716
0.008977495 0.4371096 0.1696104
0.009137356 0.4399656 0.1694439
0.009302147 0.442821 0.1692719
0.009471973 0.4456758 0.1690942
0.009646942 0.4485299 0.1689108
0.009827168 0.4513832 0.1687214
0.01001277 0.4542359 0.168526
0.01020388 0.4570877 0.1683242
0.01040061 0.4599387 0.168116
0.01060312 0.4627887 0.1679011
0.01081153 0.4656379 0.1676794
0.01102601 0.468486 0.1674506
0.0112467 0.471333 0.1672144
0.01147376 0.4741789 0.1669708
0.01170737 0.4770236 0.1667193
0.0119477 0.479867 0.1664598
0.01219493 0.4827091 0.166192
0.01244924 0.4855497 0.1659156
0.01271083 0.4883887 0.1656302
0.01297991 0.4912262 0.1653357
0.01325667 0.4940618 0.1650316
0.01354134 0.4968956 0.1647176
0.01383414 0.4997275 0.1643934
0.0141353 0.5025572 0.1640585
0.01444504 0.5053847 0.1637127
0.01476362 0.5082097 0.1633554
0.01509127 0.5110322 0.1629863
0.01542825 0.513852 0.1626049
0.01577483 0.5166689 0.1622108
0.01613126 0.5194826 0.1618035
0.01649782 0.522293 0.1613824
0.01687478 0.5250999 0.1609472
0.01726241 0.527903 0.1604971
0.01766101 0.530702 0.1600317
0.01807085 0.5334968 0.1595505
0.01849223 0.5362869 0.1590527
0.01892543 0.5390721 0.1585378
0.01937075 0.541852 0.1580051
0.01982847 0.5446263 0.157454
0.02029889 0.5473947 0.1568838
0.02078231 0.5501566 0.1562937
0.02127899 0.5529117 0.1556831
0.02178924 0.5556595 0.1550511
0.02231332 0.5583995 0.1543969
0.02285152 0.5611311 0.1537198
0.02340408 0.5638539 0.1530189
0.02397128 0.5665672 0.1522934
0.02455334 0.5692704 0.1515423
0.0251505 0.5719628 0.1507647
0.02576297 0.5746436 0.1499597
0.02639095 0.5773122 0.1491264
0.0270346 0.5799677 0.1482636
0.02769409 0.5826092 0.1473705
0.02836952 0.5852358 0.1464459
0.029061 0.5878465 0.1454888
0.02976858 0.5904403 0.1444982
0.03049228 0.5930162 0.1434728
0.03123209 0.5955729 0.1424116
0.03198794 0.5981092 0.1413134
0.0327597 0.6006238 0.140177
0.03354721 0.6031153 0.1390014
0.03435024 0.6055823 0.1377852
0.03516847 0.6080233 0.1365274
0.03600153 0.6104367 0.1352267
0.03684898 0.6128207 0.1338819
0.03771026 0.6151736 0.1324918
0.03858474 0.6174935 0.1310553
0.03947168 0.6197784 0.1295713
0.04037025 0.6220264 0.1280386
0.04127947 0.6242353 0.126456
0.04219825 0.6264028 0.1248227
0.04312538 0.6285267 0.1231376
0.0440595 0.6306045 0.1213997
0.04499908 0.6326338 0.1196083
0.04594246 0.634612 0.1177625
0.0468878 0.6365364 0.1158617
0.04783307 0.6384044 0.1139054
0.04877608 0.6402132 0.1118932
0.04971445 0.6419599 0.1098247
0.05064557 0.6436417 0.1076999
0.05156667 0.6452557 0.1055189
0.05247474 0.6467989 0.1032819
0.05336659 0.6482685 0.1009895
0.05423879 0.6496615 0.09864243
0.05508773 0.6509751 0.09624162
0.05590957 0.6522065 0.09378839
0.05670026 0.653353 0.0912843
0.0574556 0.654412 0.08873125
0.05817115 0.6553811 0.08613144
0.05884234 0.656258 0.08348745
0.05946444 0.6570406 0.0808022
0.06003257 0.6577272 0.07807898
0.06054177 0.6583162 0.07532147
0.06098699 0.6588065 0.07253372
0.06136313 0.6591971 0.06972018
0.06166509 0.6594877 0.06688565
0.06188781 0.6596781 0.06403535
0.06202627 0.6597688 0.0611748
0.06207562 0.6597607 0.05830991
0.06203113 0.6596552 0.05544687
0.06188833 0.6594543 0.05259216
0.06164299 0.6591606 0.04975251
0.06129122 0.658777 0.04693484
0.06082949 0.6583073 0.04414624
0.06025471 0.6577556 0.04139389
0.05956424 0.6571269 0.03868501
0.05875597 0.6564263 0.0360268
0.05782833 0.6556599 0.03342638
0.05678033 0.6548339 0.03089073
0.05561159 0.6539551 0.0284266
0.05432238 0.6530308 0.02604047
0.05291357 0.6520684 0.02373846
0.0513867 0.6510759 0.02152632
0.04974393 0.6500612 0.01940929
0.04798806 0.6490325 0.01739216
0.04612245 0.6479981 0.01547911
0.04415107 0.6469664 0.01367378
0.04207838 0.6459454 0.01197916
0.03990934 0.6449434 0.01039763
0.03764934 0.6439681 0.008930892
0.03530414 0.6430271 0.00758003
0.03287983 0.6421279 0.006345473
0.03038273 0.6412771 0.005227027
0.02781939 0.6404815 0.004223892
0.02519646 0.6397468 0.003334695
0.02252068 0.6390788 0.002557522
0.01979878 0.6384823 0.001889961
0.01703748 0.6379619 0.001329143
0.01424339 0.6375215 0.0008717932
0.01142296 0.6371645 0.0005142741
0.008582473 0.6368937 0.0002526405
0.005727995 0.6367115 8.268761e-05
0.00286533 0.6366198 0
0 0.6366198 0

LINES 349 1047
2 0 1
2 1 2
2 2 3
2 3 4
2 4 5
2 5 6
2 6 7
2 7 8
2 8 9
2 9 10
2 10 11
2 11 12
2 12 13
2 13 14
2 14 15
2 15 16
2 16 17
2 17 18
2 18 19
2 19 20
2 20 21
2 21 22
2 22 23
2 23 24
2 24 25
2 25 26
2 26 27
2 27 28
2 28 29
2 29 30
2 30 31
2 31 32
2 32 33
2 33 34
2 34 35
2 35 36
2 36 37
2 37 38
2 38 39
2 39 40
2 40 41
2 41 42
2 42 43
2 43 44
2 44 45
2 45 46
2 46 47
2 47 48
2 48 49
2 49 50
2 50 51
2 51 52
2 52 53
2 53 54
2 54 55
2 55 56
2 56 57
2 57 58
2 58 59
2 59 60
2 60 61
2 61 62
2 62 63
2 63 64
2 64 65
2 65 66
2 66 67
2 67 68
2 68 69
2 69 70
2 70 71
2 71 72
2 72 73
2 73 74
2 74 75
2 75 76
2 76 77
2 77 78
2 78 79
2 79 80
2 80 81
2 81 82
2 82 83
2 83 84
2 84 85
2 85 86
2 86 87
2 87 88
2 88 89
2 89 90
2 90 91
2 91 92
2 92 93
2 93 94
2 94 95
2 95 96
2 96 97
2 97 98
2 98 99
2 99 100
2 100 101
2 101 102
2 102 103
2 103 104
2 104 105
2 105 106
2 106 107
2 107 108
2 108 109
2 109 110
2 110 111
2 111 112
2 112 113
2 113 114
2 114 115
2 115 116
2 116 117
2 117 118
2 118 119
2 119 120
2 120 121
2 121 122
2 122 123
2 123 124
2 124 125
2 125 126
2 126 127
2 127 128
2 128 129
2 129 130
2 130 131
2 131 132
2 132 133
2 133 134
2 134 135
2 135 136
2 136 137
2 137 138
2 138 139
2 139 140
2 140 141
2 141 142
2 142 143
2 143 144
2 144 145
2 145 146
2 146 147
2 147 148
2 148 149
2 149 150
2 150 151
2 151 152
2 152 153
2 153 154
2 154 155
2 155 156
2 156 157
2 157 158
2 158 159
2 159 160
2 160 161
2 161 162
2 162 163
2 163 164
2 164 165
2 165 166
2 166 167
2 167 168
2 168 169
2 169 170
2 170 171
2 171 172
2 172 173
2 173 174
2 174 175
2 175 176
2 176 177
2 177 178
2 178 179
2 179 180
2 180 181
2 181 182
2 182 183
2 183 184
2 184 185
2 185 186
2 186 187
2 187 188
2 188 189
2 189 190
2 190 191
2 191 192
2 192 193
2 193 194
2 194 195
2 195 196
2 196 197
2 197 198
2 198 199
2 199 200
2 200 201
2 201 202
2 202 203
2 203 204
2 204 205
2 205 206
2 206 207
2 207 208
2 208 209
2 209 210
2 210 211
2 211 212
2 212 213
2 213 214
2 214 215
2 215 216
2 216 217
2 217 218
2 218 219
2 219 220
2 220 221
2 221 222
2 222 223
2 223 224
2 224 225
2 225 226
2 226 227
2 227 228
2 228 229
2 229 230
2 230 231
2 231 232
2 232 233
2 233 234
2 234 235
2 235 236
2 236 237
2 237 238
2 238 239
2 239 240
2 240 241
2 241 242
2 242 243
2 243 244
2 244 245
2 245 246
2 246 247
2 247 248
2 248 249
2 249 250
2 250 251
2 251 252
2 252 253
2 253 254
2 254 255
2 255 256
2 256 257
2 257 258
2 258 259
2 259 260
2 260 261
2 261 262
2 262 263
2 263 264
2 264 265
2 265 266
2 266 267
2 267 268
2 268 269
2 269 270
2 270 271
2 271 272
2 272 273
2 273 274
2 274 275
2 275 276
2 276 277
2 277 278
2 278 279
2 279 280
2 280 281
2 281 282
2 282 283
2 283 284
2 284 285
2 285 286
2 286 287
2 287 288
2 288 289
2 289 290
2 290 291
2 291 292
2 292 293
2 293 294
2 294 295
2 295 296
2 296 297
2 297 298
2 298 299
2 299 300
2 300 301
2 301 302
2 302 303
2 303 304
2 304 305
2 305 306
2 306 307
2 307 308
2 308 309
2 309 310
2 310 311
2 311 312
2 312 313
2 313 314
2 314 315
2 315 316
2 316 317
2 317 318
2 318 319
2 319 320
2 320 321
2 321 322
2 322 323
2 323 324
2 324 325
2 325 326
2 326 327
2 327 328
2 328 329
2 329 330
2 330 331
2 331 332
2 332 333
2 333 334
2 334 335
2 335 336
2 336 337
2 337 338
2 338 339
2 339 340
2 340 341
2 341 342
2 342 343
2 343 344
2 344 345
2 345 346
2 346 347
2 347 348
2 348 349


POINT_DATA 350
SCALARS a FLOAT 1
LOOKUP_TABLE default
0.0005894628
0.0005894628
0.0005894628
0.0005894628
0.0005894628
0.0005894628
0.0005894628
0.0005894628
0.0005894628
0.0005894628
0.0005894628
0.0005894628
0.0005894628
0.0005894628
0.0005894628
0.0005894628
0.0005894628
0.0005894628
0.0005894628
0.0005894628
0.0005894628
0.0005894628
0.0005894628
0.0005894628
0.0005894628
0.0005894628
0.0005894628
0.0005894628
0.0005894628
0.0005894628
0.0005894628
0.0005894628
0.0005894628
0.0005894628
0.0005894628
0.0005894628
0.0005894628
0.0005894628
0.0005894628
0.0005894628
0.0005894628
0.0005894628
0.0005894628
0.0005894628
0.0005894628
0.0005894628
0.0005894628
0.0005894628
0.0005894628
0.0005894628
0.0005894628
0.0005894628
0.0005894628
0.0005894628
0.0005894628
0.0005894628
0.0005894628
0.0005894628
0.0005894628
0.0005894628
0.0005894628
0.0005894628
0.0005894628
0.0005894628
0.0005894628
0.0005894628
0.0005894628
0.0005894628
0.0005894628
0.0005894628
0.0005894628
0.0005894628
0.0005894628
0.0005894628
0.0005894628
0.0005894628
0.0005894628
0.0005894628
0.0005894628
0.0005894628
0.0005894628
0.0005894628
0.0005894628
0.0005894628
0.0005894628
0.0005894628
0.0005894628
0.0005894628
0.0005894628
0.0005894628
0.0005894628
0.0005894628
0.0005894628
0.0005894628
0.0005894628
0.0005894628
0.0005894628
0.0005894628
0.0005894628
0.0005894628
0.0005894628
0.0005894628
0.0005894628
0.0005894628
0.0005894628
0.0005894628
0.0005894628
0.0005894628
0.0005894628
0.0005894628
0.0005894628
0.0005894628
0.0005894628
0.0005894628
0.0005894628
0.0005894628
0.0005894628
0.0005894628
0.0005894628
0.0005894628
0.0005894628
0.0005894628
0.0005894628
0.0005894628
0.0005894628
0.0005894628
0.0005894628
0.0005894628
0.0005894628
0.0005894628
0.0005894628
0.0005894628
0.0005894628
0.0005894628
0.0005894628
0.0005894628
0.0005894628
0.0005894628
0.0005894628
0.0005894628
0.0005894628
0.0005894628
0.0005894628
0.0005894628
0.0005894628
0.0005894628
0.0005894628
0.0005894628
0.0005894628
0.0005894628
0.0005894628
0.0005894628
0.0005894628
0.0005894628
0.0005894628
0.0005894628
0.0005894628
0.0005894628
0.0005894628
0.0005894628
0.0005894628
0.0005894628
0.0005894628
0.0005894628
0.0005894628
0.0005894628
0.0005894628
0.0005894628
0.0005894628
0.0005894628
0.0005894628
0.0005894628
0.0005894628
0.0005894628
0.0005894628
0.0005894628
0.0005894628
0.0005894628
0.0005894628
0.0005894628
0.0005894628
0.0005894628
0.0005894628
0.0005894628
0.0005894628
0.0005894628
0.0005894628
0.0005894628
0.0005894628
0.0005894628
0.0005894628
0.0005894628
0.0005894628
0.0005894628
0.0005894628
0.0005894628
0.0005894628
0.0005894628
0.0005894628
0.0005894628
0.0005894628
0.0005894628
0.0005894628
0.0005894628
0.0005894628
0.0005894628
0.0005894628
0.0005894628
0.0005894628
0.0005894628
0.0005894628
0.0005894628
0.0005894628
0.0005894628
0.0005894628
0.0005894628
0.0005894628
0.0005894628
0.0005894628
0.0005894628
0.0005894628
0.0005894628
0.0005894628
0.0005894628
0.0005894628
0.0005894628
0.0005894628
0.0005894628
0.0005894628
0.0005894628
0.0005894628
0.0005894628
0.0005894628
0.0005894628
0.0005894628
0.0005894628
0.0005894628
0.0005894628
0.0005894628
0.0005894628
0.0005894628
0.0005894628
0.0005894628
0.0005894628
0.0005894628
0.0005894628
0.0005894628
0.0005894628
0.0005894628
0.0005894628
0.0005894628
0.0005894628
0.0005894628
0.0005894628
0.0005894628
0.0005894628
0.0005894628
0.0005894628
0.0005894628
0.0005894628
0.0005894628
0.0005894628
0.0005894628
0.0005894628
0.0005894628
0.0005894628
0.0005894628
0.0005894628
0.0005894628
0.0005894628
0.0005894628
0.0005894628
0.0005894628
0.0005894628
0.0005894628
0.0005894628
0.0005894628
0.0005894628
0.0005894628
0.0005894628
0.0005894628
0.0005894628
0.0005894628
0.0005894628
0.0005894628
0.0005894628
0.0005894628
0.0005894628
0.0005894628
0.0005894628
0.0005894628
0.0005894628
0.0005894628
0.0005894628
0.0005894628
0.0005894628
0.0005894628
0.0005894628
0.0005894628
0.0005894628
0.0005894628
0.0005894628
0.0005894628
0.0005894628
0.0005894628
0.0005894628
0.0005894628
0.0005894628
0.0005894628
0.0005894628
0.0005894628
0.0005894628
0.0005894628
0.0005894628
0.0005894628
0.0005894628
0.0005894628
0.0005894628
0.0005894628
0.0005894628
0.0005894628
0.0005894628
0.0005894628
0.0005894628
0.0005894628
0.0005894628
0.0005894628
0.0005894628
0.0005894628
0.0005894628
0.0005894628
0.0005894628
0.0005894628
0.0005894628
0.0005894628
0.0005894628
0.0005894628
0.0005894628
0.0005894628
0.0005894628
0.0005894628
0.0005894628
0.0005894628
0.0005894628
0.0005894628
0.0005894628
0.0005894628
0.0005894628
0.0005894628
0.0005894628


SCALARS b FLOAT 1
LOOKUP_TABLE default
0.04420971
0.04420971
0.04420971
0.04420971
0.04420971
0.04420971
0.04420971
0.04420971
0.04420971
0.04420971
0.04420971
0.04420971
0.04420971
0.04420971
0.04420971
0.04420971
0.04420971
0.04420971
0.04420971
0.04420971
0.04420971
0.04420971
0.04420971
0.04420971
0.04420971
0.04420971
0.04420971
0.04420971
0.04420971
0.04420971
0.04420971
0.04420971
0.04420971
0.04420971
0.04420971
0.04420971
0.04420971
0.04420971
0.04420971
0.04420971
0.04420971
0.04420971
0.04420971
0.04420971
0.04420971
0.04420971
0.04420971
0.04420971
0.04420971
0.04420971
0.04420971
0.04420971
0.04420971
0.04420971
0.04420971
0.04420971
0.04420971
0.04420971
0.04420971
0.04420971
0.04420971
0.04420971
0.04420971
0.04420971
0.04420971
0.04420971
0.04420971
0.04420971
0.04420971
0.04420971
0.04420971
0.04420971
0.04420971
0.04420971
0.04420971
0.04420971
0.04420971
0.04420971
0.04420971
0.04420971
0.04420971
0.04420971
0.04420971
0.04420971
0.04420971
0.04420971
0.04420971
0.04420971
0.04420971
0.04420971
0.04420971
0.04420971
0.04420971
0.04420971
0.04420971
0.04420971
0.04420971
0.04420971
0.04420971
0.04420971
0.04420971
0.04420971
0.04420971
0.04420971
0.04420971
0.04420971
0.04420971
0.04420971
0.04420971
0.04420971
0.04420971
0.04420971
0.04420971
0.04420971
0.04420971
0.04420971
0.04420971
0.04420971
0.04420971
0.04420971
0.04420971
0.04420971
0.04420971
0.04420971
0.04420971
0.04420971
0.04420971
0.04420971
0.04420971
0.04420971
0.04420971
0.04420971
0.04420971
0.04420971
0.04420971
0.04420971
0.04420971
0.04420971
0.04420971
0.04420971
0.04420971
0.04420971
0.04420971
0.04420971
0.04420971
0.04420971
0.04420971
0.04420971
0.04420971
0.04420971
0.04420971
0.04420971
0.04420971
0.04420971
0.04420971
0.04420971
0.04420971
0.04420971
0.04420971
0.04420971
0.04420971
0.04420971
0.04420971
0.04420971
0.04420971
0.04420971
0.04420971
0.04420971
0.04420971
0.04420971
0.04420971
0.04420971
0.04420971
0.04420971
0.04420971
0.04420971
0.04420971
0.04420971
0.04420971
0.04420971
0.04420971
0.04420971
0.04420971
0.04420971
0.04420971
0.04420971
0.04420971
0.04420971
0.04420971
0.04420971
0.04420971
0.04420971
0.04420971
0.04420971
0.04420971
0.04420971
0.04420971
0.04420971
0.04420971
0.04420971
0.04420971
0.04420971
0.04420971
0.04420971
0.04420971
0.04420971
0.04420971
0.04420971
0.04420971
0.04420971
0.04420971
0.04420971
0.04420971
0.04420971
0.04420971
0.04420971
0.04420971
0.04420971
0.04420971
0.04420971
0.04420971
0.04420971
0.04420971
0.04420971
0.04420971
0.04420971
0.04420971
0.04420971
0.04420971
0.04420971
0.04420971
0.04420971
0.04420971
0.04420971
0.04420971
0.04420971
0.04420971
0.04420971
0.04420971
0.04420971
0.04420971
0.04420971
0.04420971
0.04420971
0.04420971
0.04420971
0.04420971
0.04420971
0.04420971
0.04420971
0.04420971
0.04420971
0.04420971
0.04420971
0.04420971
0.04420971
0.04420971
0.04420971
0.04420971
0.04420971
0.04420971
0.04420971
0.04420971
0.04420971
0.04420971
0.04420971
0.04420971
0.04420971
0.04420971
0.04420971
0.04420971
0.04420971
0.04420971
0.04420971
0.04420971
0.04420971
0.04420971
0.04420971
0.04420971
0.04420971
0.04420971
0.04420971
0.04420971
0.04420971
0.04420971
0.04420971
0.04420971
0.04420971
0.04420971
0.04420971
0.04420971
0.04420971
0.04420971
0.04420971
0.04420971
0.04420971
0.04420971
0.04420971
0.04420971
0.04420971
0.04420971
0.04420971
0.04420971
0.04420971
0.04420971
0.04420971
0.04420971
0.04420971
0.04420971
0.04420971
0.04420971
0.04420971
0.04420971
0.04420971
0.04420971
0.04420971
0.04420971
0.04420971
0.04420971
0.04420971
0.04420971
0.04420971
0.04420971
0.04420971
0.04420971
0.04420971
0.04420971
0.04420971
0.04420971
0.04420971
0.04420971
0.04420971
0.04420971
0.04420971
0.04420971
0.04420971
0.04420971
0.04420971
0.04420971
0.04420971
0.04420971
0.04420971
0.04420971
0.04420971
0.04420971
0.04420971
0.04420971
0.04420971
0.04420971
0.04420971


VECTORS d1 FLOAT
0 -0.7540451 0.6568227
-0.04310153 -0.730664 0.6813754
-0.08689976 -0.7046918 0.7041718
-0.13123 -0.6761106 0.7250194
-0.1759115 -0.644922 0.7437276
-0.220749 -0.6111485 0.7601101
-0.2655329 -0.5748353 0.7739875
-0.310042 -0.536051 0.78519
-0.3540443 -0.4948884 0.7935604
-0.3973 -0.4514654 0.7989566
-0.4395639 -0.4059245 0.8012545
-0.4805881 -0.3584325 0.8003507
-0.5201251 -0.3091797 0.7961644
-0.557931 -0.2583785 0.7886403
-0.5937692 -0.2062612 0.7777496
-0.6274131 -0.1530783 0.7634918
-0.6586503 -0.09909498 0.7458954
-0.6872848 -0.04458857 0.7250183
-0.7131406 0.01015518 0.7009474
-0.7360643 0.06484571 0.6737984
-0.755927 0.1191915 0.643714
-0.7726263 0.1729039 0.6108623
-0.7860878 0.2257009 0.5754347
-0.7962656 0.2773111 0.5376427
-0.8031426 0.3274767 0.4977158
-0.8067305 0.3759571 0.4558971
-0.8070689 0.4225312 0.4124405
-0.8042237 0.4670003 0.3676072
-0.7982858 0.5091893 0.3216614
-0.7893689 0.5489485 0.2748678
-0.777607 0.5861543 0.2274874
-0.7631519 0.6207095 0.1797748
-0.7461703 0.652543 0.1319754
-0.7268411 0.6816096 0.08432287
-0.7053524 0.7078886 0.03703694
-0.6818986 0.7313827 -0.009678171
-0.6566779 0.7521162 -0.05563519
-0.6298896 0.7701335 -0.1006647
-0.6017317 0.7854968 -0.1446158
-0.5723988 0.798284 -0.187356
-0.5420805 0.8085865 -0.2287718
-0.5109593 0.8165075 -0.2687677
-0.4792097 0.8221592 -0.3072658
-0.4469967 0.8256614 -0.3442052
-0.4144754 0.827139 -0.3795409
-0.3817901 0.8267206 -0.4132425
-0.3490742 0.8245369 -0.4452933
-0.3164494 0.8207189 -0.4756892
-0.2840266 0.8153969 -0.5044372
-0.2519052 0.808699 -0.531554
-0.220174 0.8007508 -0.5570652
-0.1889112 0.7916736 -0.5810039
-0.1581849 0.7815846 -0.6034096
-0.1280538 0.7705959 -0.624327
-0.0985675 0.7588144 -0.6438052
-0.0697675 0.7463411 -0.6618968
-0.0416874 0.7332714 -0.6786569
-0.01435376 0.7196945 -0.6941425
0.01221334 0.7056939 -0.7084116
0.03799972 0.691347 -0.7215229
0.06299647 0.6767256 -0.7335352
0.0871994 0.6618957 -0.7445067
0.1106085 0.646918 -0.7544951
0.1332276 0.6318476 -0.7635568
0.1550636 0.6167351 -0.7717468
0.1761261 0.6016261 -0.7791185
0.1964275 0.5865615 -0.7857238
0.2159817 0.5715784 -0.7916123
0.2348048 0.5567096 -0.7968319
0.2529139 0.5419844 -0.8014284
0.2703274 0.5274286 -0.8054453
0.2870647 0.5130649 -0.8089241
0.3031455 0.4989129 -0.8119044
0.3185903 0.4849897 -0.8144232
0.3334198 0.4713097 -0.816516
0.3476548 0.4578852 -0.8182159
0.3613162 0.4447264 -0.8195542
0.3744247 0.4318415 -0.8205602
0.3870008 0.4192372 -0.8212615
0.3990651 0.4069185 -0.8216839
0.4106373 0.394889 -0.8218514
0.4217371 0.3831512 -0.8217865
0.4323836 0.3717062 -0.8215102
0.4425955 0.3605544 -0.8210419
0.452391 0.3496951 -0.8203997
0.4617877 0.3391269 -0.8196006
0.4708027 0.3288476 -0.8186599
0.4794526 0.3188545 -0.8175922
0.4877533 0.3091444 -0.8164107
0.4957203 0.2997133 -0.8151278
0.5033685 0.2905571 -0.8137547
0.5107122 0.2816712 -0.8123019
0.517765 0.2730509 -0.810779
0.5245404 0.2646909 -0.8091948
0.5310508 0.2565859 -0.8075572
0.5373086 0.2487304 -0.8058738
0.5433254 0.2411187 -0.8041513
0.5491123 0.233745 -0.8023958
0.55468 0.2266034 -0.8006129
0.5600387 0.2196878 -0.7988078
0.5651983 0.2129922 -0.7969851
0.570168 0.2065106 -0.795149
0.5749566 0.2002368 -0.7933033
0.5795728 0.1941647 -0.7914515
0.5840245 0.1882883 -0.7895967
0.5883194 0.1826014 -0.7877417
0.5924648 0.177098 -0.7858891
0.5964678 0.171772 -0.7840412
0.6003347 0.1666176 -0.7822
0.604072 0.1616288 -0.7803673
0.6076855 0.1567998 -0.7785449
0.6111809 0.1521248 -0.7767342
0.6145633 0.1475982 -0.7749366
0.617838 0.1432144 -0.7731532
0.6210095 0.138968 -0.7713852
0.6240823 0.1348535 -0.7696335
0.6270607 0.1308657 -0.7678991
0.6299485 0.1269996 -0.7661827
0.6327495 0.1232501 -0.7644851
0.6354672 0.1196123 -0.7628069
0.6381048 0.1160814 -0.7611487
0.6406654 0.112653 -0.7595111
0.6431519 0.1093224 -0.7578946
0.6455669 0.1060854 -0.7562998
0.6479129 0.1029377 -0.7547269
0.6501923 0.09987539 -0.7531766
0.6524072 0.09689442 -0.7516491
0.6545597 0.09399105 -0.7501448
0.6566517 0.09116163 -0.7486642
0.6586849 0.08840264 -0.7472076
0.6606609 0.08571071 -0.7457753
0.6625813 0.08308256 -0.7443677
0.6644475 0.08051507 -0.7429851
0.6662607 0.07800522 -0.7416279
0.6680222 0.07555013 -0.7402963
0.669733 0.07314701 -0.7389907
0.6713942 0.07079319 -0.7377114
0.6730068 0.06848611 -0.7364588
0.6745715 0.06622332 -0.7352331
0.6760892 0.06400245 -0.7340348
0.6775606 0.06182123 -0.7328641
0.6789863 0.05967751 -0.7317214
0.6803669 0.0575692 -0.730607
0.681703 0.0554943 -0.7295214
0.682995 0.05345091 -0.7284647
0.6842433 0.05143719 -0.7274375
0.6854484 0.04945138 -0.72644
0.6866105 0.04749181 -0.7254727
0.6877299 0.04555686 -0.7245359
0.6888068 0.04364501 -0.7236299
0.6898416 0.04175477 -0.7227552
0.6908342 0.03988473 -0.7219122
0.6917849 0.03803355 -0.7211013
0.6926938 0.03619995 -0.7203227
0.6935609 0.03438269 -0.7195771
0.6943862 0.0325806 -0.7188646
0.6951698 0.03079256 -0.7181857
0.6959117 0.0290175 -0.7175409
0.6966118 0.02725441 -0.7169304
0.69727 0.02550232 -0.7163548
0.6978864 0.0237603 -0.7158142
0.6984609 0.02202746 -0.7153091
0.6989933 0.02030297 -0.7148399
0.6994836 0.01858603 -0.7144069
0.6999317 0.01687588 -0.7140103
0.7003375 0.01517177 -0.7136506
0.7007009 0.01347302 -0.7133279
0.7010218 0.01177895 -0.7130426
0.7013001 0.01008892 -0.7127948
0.7015357 0.008402302 -0.7125847
0.7017286 0.006718506 -0.7124126
0.7018787 0.005036943 -0.7122786
0.701986 0.003357042 -0.7121828
0.7020504 0.001678245 -0.7121253
0.7020718 -3.328215e-09 -0.7121061
0.7020504 -0.001678251 -0.7121253
0.701986 -0.003357049 -0.7121828
0.7018787 -0.005036949 -0.7122786
0.7017286 -0.006718513 -0.7124126
0.7015357 -0.008402309 -0.7125847
0.7013001 -0.01008892 -0.7127948
0.7010218 -0.01177895 -0.7130426
0.7007009 -0.01347302 -0.7133279
0.7003375 -0.01517178 -0.7136506
0.6999317 -0.01687588 -0.7140103
0.6994836 -0.01858604 -0.7144069
0.6989933 -0.02030298 -0.7148399
0.6984609 -0.02202747 -0.7153091
0.6978864 -0.0237603 -0.7158142
0.69727 -0.02550233 -0.7163548
0.6966118 -0.02725442 -0.7169304
0.6959117 -0.02901751 -0.7175409
0.6951698 -0.03079257 -0.7181857
0.6943862 -0.0325806 -0.7188646
0.6935609 -0.03438269 -0.7195771
0.6926938 -0.03619995 -0.7203227
0.6917849 -0.03803356 -0.7211013
0.6908342 -0.03988474 -0.7219122
0.6898416 -0.04175477 -0.7227552
0.6888068 -0.04364501 -0.7236299
0.6877299 -0.04555687 -0.7245359
0.6866105 -0.04749181 -0.7254727
0.6854484 -0.04945139 -0.72644
0.6842433 -0.05143719 -0.7274375
0.682995 -0.05345092 -0.7284647
0.681703 -0.05549431 -0.7295214
0.6803669 -0.05756921 -0.730607
0.6789863 -0.05967752 -0.7317214
0.6775606 -0.06182124 -0.7328641
0.6760892 -0.06400245 -0.7340348
0.6745715 -0.06622332 -0.7352331
0.6730068 -0.06848612 -0.7364588
0.6713942 -0.07079319 -0.7377114
0.669733 -0.07314701 -0.7389907
0.6680222 -0.07555013 -0.7402963
0.6662607 -0.07800523 -0.7416279
0.6644475 -0.08051507 -0.7429851
0.6625813 -0.08308256 -0.7443677
0.6606609 -0.08571071 -0.7457753
0.6586849 -0.08840265 -0.7472076
0.6566517 -0.09116164 -0.7486642