# vtk DataFile Version 2.0
Written badly by Kevin Korner
ASCII
DATASET POLYDATA
POINTS 350 FLOAT
0 0 0
0.00286533 0 0
0.005730178 1.063062e-05 5.142422e-05
0.008593586 3.282474e-05 0.0001539627
0.0114546 6.750035e-05 0.0003072636
0.01431228 0.0001155594 0.0005109339
0.01716568 0.0001778866 0.0007645403
0.02001389 0.0002553487 0.00106761
0.02285597 0.0003487932 0.001419633
0.02569104 0.0004590474 0.001820062
0.0285182 0.0005869177 0.002268311
0.03133658 0.0007331889 0.002763764
0.03414531 0.0008986231 0.003305767
0.03694356 0.001083959 0.003893637
0.03973049 0.001289911 0.004526659
0.04250529 0.001517171 0.005204088
0.04526719 0.001766402 0.005925153
0.0480154 0.002038245 0.006689055
0.05074918 0.002333315 0.007494969
0.0534678 0.002652197 0.00834205
0.05617055 0.002995453 0.009229427
0.05885674 0.003363618 0.01015621
0.06152572 0.003757197 0.0111215
0.06417683 0.004176671 0.01212435
0.06680948 0.004622494 0.01316384
0.06942306 0.005095089 0.01423901
0.072017 0.005594855 0.01534889
0.07459075 0.006122164 0.01649249
0.07714381 0.006677359 0.01766883
0.07967566 0.007260759 0.01887692
0.08218584 0.007872654 0.02011574
0.0846739 0.008513308 0.0213843
0.08713942 0.009182961 0.02268157
0.08958199 0.009881826 0.02400653
0.09200125 0.01061009 0.02535818
0.09439683 0.01136792 0.0267355
0.09676841 0.01215545 0.02813746
0.09911569 0.0129728 0.02956306
0.1014384 0.01382006 0.03101129
0.1037362 0.01469729 0.03248113
0.106009 0.01560456 0.03397159
0.1082565 0.01654187 0.03548169
0.1104785 0.01750924 0.03701042
0.1126748 0.01850666 0.03855682
0.1148454 0.01953407 0.04011992
0.11699 0.02059144 0.04169876
0.1191086 0.02167869 0.0432924
0.121201 0.02279573 0.0448999
0.1232672 0.02394245 0.04652034
0.1253072 0.02511872 0.04815283
0.1273209 0.02632442 0.04979645
0.1293082 0.02755938 0.05145033
0.1312693 0.02882343 0.05311362
0.1332041 0.03011639 0.05478545
0.1351126 0.03143808 0.05646499
0.1369949 0.03278827 0.05815143
0.138851 0.03416675 0.05984396
0.1406811 0.0355733 0.06154181
0.1424851 0.03700766 0.06324419
0.1442633 0.0384696 0.06495037
0.1460156 0.03995885 0.0666596
0.1477423 0.04147513 0.06837117
0.1494435 0.04301819 0.07008438
0.1511193 0.04458773 0.07179855
0.1527699 0.04618347 0.07351302
0.1543953 0.04780511 0.07522713
0.1559959 0.04945235 0.07694026
0.1575718 0.05112487 0.07865179
0.1591232 0.05282238 0.08036114
0.1606502 0.05454456 0.08206772
0.1621531 0.05629109 0.08377097
0.1636321 0.05806164 0.08547035
0.1650873 0.05985589 0.08716534
0.1665191 0.06167352 0.08885541
0.1679276 0.0635142 0.09054008
0.1693131 0.0653776 0.09221887
0.1706758 0.06726339 0.09389132
0.1720159 0.06917123 0.09555697
0.1733336 0.07110079 0.0972154
0.1746293 0.07305175 0.09886619
0.1759031 0.07502377 0.1005089
0.1771553 0.07701653 0.1021433
0.1783862 0.07902968 0.1037688
0.1795959 0.08106291 0.1053851
0.1807848 0.08311589 0.106992
0.1819531 0.08518829 0.1085889
0.1831011 0.08727979 0.1101758
0.1842289 0.08939007 0.1117521
0.1853369 0.09151881 0.1133177
0.1864252 0.09366569 0.1148722
0.1874942 0.0958304 0.1164154
0.1885441 0.09801263 0.1179469
0.1895751 0.1002121 0.1194666
0.1905875 0.1024284 0.1209743
0.1915815 0.1046614 0.1224696
0.1925574 0.1069107 0.1239523
0.1935154 0.109176 0.1254223
0.1944557 0.111457 0.1268792
0.1953786 0.1137535 0.128323
0.1962843 0.1160651 0.1297535
0.1971731 0.1183917 0.1311703
0.1980451 0.1207328 0.1325735
0.1989006 0.1230883 0.1339627
0.1997398 0.1254578 0.1353379
0.2005629 0.1278412 0.1366989
0.2013702 0.1302381 0.1380454
0.2021618 0.1326483 0.1393775
0.202938 0.1350715 0.1406948
0.2036989 0.1375076 0.1419974
0.2044448 0.1399562 0.143285
0.2051759 0.1424172 0.1445575
0.2058923 0.1448903 0.1458149
0.2065942 0.1473752 0.1470569
0.2072819 0.1498717 0.1482834
0.2079554 0.1523797 0.1494944
0.208615 0.1548989 0.1506897
0.2092609 0.1574291 0.1518692
0.2098932 0.15997 0.1530328
0.2105121 0.1625215 0.1541804
0.2111178 0.1650834 0.1553118
0.2117103 0.1676554 0.1564269
0.2122899 0.1702375 0.1575257
0.2128566 0.1728293 0.1586081
0.2134108 0.1754307 0.1596738
0.2139524 0.1780415 0.1607228
0.2144816 0.1806615 0.1617551
0.2149985 0.1832905 0.1627704
0.2155034 0.1859285 0.1637687
0.2159962 0.1885751 0.1647498
0.2164772 0.1912302 0.1657137
0.2169464 0.1938937 0.1666602
0.217404 0.1965654 0.1675892
0.21785 0.199245 0.1685005
0.2182845 0.2019326 0.1693941
0.2187077 0.2046278 0.1702698
0.2191197 0.2073305 0.1711276
0.2195205 0.2100406 0.1719671
0.2199102 0.2127579 0.1727884
0.220289 0.2154822 0.1735913
0.2206568 0.2182135 0.1743756
0.2210139 0.2209514 0.1751412
0.2213601 0.223696 0.1758879
0.2216957 0.226447 0.1766157
0.2220207 0.2292042 0.1773242
0.2223351 0.2319676 0.1780135
0.222639 0.2347369 0.1786832
0.2229325 0.237512 0.1793333
0.2232156 0.2402928 0.1799636
0.2234883 0.2430791 0.1805738
0.2237507 0.2458707 0.1811639
0.2240029 0.2486675 0.1817336
0.2242448 0.2514693 0.1822828
0.2244766 0.2542759 0.1828112
0.2246982 0.2570872 0.1833187
0.2249096 0.259903 0.1838051
0.225111 0.2627232 0.1842701
0.2253023 0.2655475 0.1847136
0.2254834 0.2683758 0.1851354
0.2256546 0.271208 0.1855353
0.2258156 0.2740437 0.185913
0.2259667 0.2768829 0.1862684
0.2261077 0.2797253 0.1866012
0.2262386 0.2825708 0.1869113
0.2263596 0.2854192 0.1871985
0.2264704 0.2882702 0.1874625
0.2265713 0.2911236 0.1877032
0.2266621 0.2939792 0.1879205
0.2267428 0.2968369 0.188114
0.2268135 0.2996963 0.1882838
0.2268741 0.3025573 0.1884296
0.2269246 0.3054196 0.1885513
0.226965 0.3082829 0.1886488
0.2269953 0.3111472 0.188722
0.2270155 0.314012 0.1887708
0.2270256 0.3168772 0.1887952
0.2270256 0.3197426 0.1887952
0.2270155 0.3226078 0.1887708
0.2269953 0.3254726 0.188722
0.226965 0.3283368 0.1886488
0.2269246 0.3312002 0.1885513
0.2268741 0.3340625 0.1884296
0.2268135 0.3369235 0.1882838
0.2267428 0.3397829 0.188114
0.2266621 0.3426406 0.1879205
0.2265713 0.3454962 0.1877032
0.2264704 0.3483496 0.1874625
0.2263596 0.3512006 0.1871985
0.2262386 0.3540489 0.1869113
0.2261077 0.3568944 0.1866012
0.2259667 0.3597369 0.1862684
0.2258156 0.3625761 0.185913
0.2256546 0.3654118 0.1855353
0.2254834 0.3682439 0.1851354
0.2253023 0.3710723 0.1847136
0.225111 0.3738966 0.1842701
0.2249096 0.3767167 0.1838051
0.2246982 0.3795326 0.1833187
0.2244766 0.3823439 0.1828112
0.2242448 0.3851505 0.1822828
0.2240029 0.3879523 0.1817336
0.2237507 0.3907491 0.1811639
0.2234883 0.3935407 0.1805738
0.2232156 0.3963269 0.1799636
0.2229325 0.3991077 0.1793333
0.222639 0.4018829 0.1786832
0.2223351 0.4046522 0.1780135
0.2220207 0.4074156 0.1773242
0.2216957 0.4101728 0.1766157
0.2213601 0.4129238 0.1758879
0.2210139 0.4156683 0.1751412
0.2206568 0.4184063 0.1743756
0.220289 0.4211376 0.1735913
0.2199102 0.4238619 0.1727884
0.2195205 0.4265792 0.1719671
0.2191197 0.4292893 0.1711276
0.2187077 0.431992 0.1702698
0.2182845 0.4346872 0.1693941
0.21785 0.4373747 0.1685005
0.217404 0.4400544 0.1675892
0.2169464 0.4427261 0.1666602
0.2164772 0.4453895 0.1657137
0.2159962 0.4480447 0.1647498
0.2155034 0.4506913 0.1637687
0.2149985 0.4533292 0.1627704
0.2144816 0.4559583 0.1617551
0.2139524 0.4585783 0.1607228
0.2134108 0.4611891 0.1596738
0.2128566 0.4637905 0.1586081
0.2122899 0.4663823 0.1575257
0.2117103 0.4689643 0.1564269
0.2111178 0.4715364 0.1553118
0.2105121 0.4740983 0.1541804
0.2098932 0.4766498 0.1530328
0.2092609 0.4791907 0.1518692
0.2086151 0.4817209 0.1506897
0.2079554 0.4842401 0.1494944
0.2072819 0.486748 0.1482834
0.2065942 0.4892446 0.1470569
0.2058923 0.4917295 0.1458149
0.2051759 0.4942026 0.1445575
0.2044448 0.4966635 0.143285
0.2036989 0.4991122 0.1419974
0.202938 0.5015482 0.1406948
0.2021618 0.5039715 0.1393775
0.2013702 0.5063817 0.1380454
0.2005629 0.5087786 0.1366989
0.1997398 0.511162 0.1353379
0.1989006 0.5135315 0.1339627
0.1980451 0.515887 0.1325735
0.1971731 0.5182281 0.1311703
0.1962843 0.5205546 0.1297535
0.1953786 0.5228663 0.128323
0.1944557 0.5251628 0.1268792
0.1935154 0.5274438 0.1254223
0.1925574 0.5297091 0.1239523
0.1915815 0.5319584 0.1224696
0.1905875 0.5341913 0.1209743
0.1895751 0.5364077 0.1194666
0.1885441 0.5386071 0.1179469
0.1874942 0.5407894 0.1164154
0.1864252 0.5429541 0.1148722
0.1853369 0.545101 0.1133177
0.1842289 0.5472297 0.1117521
0.1831011 0.54934 0.1101758
0.1819531 0.5514315 0.1085889
0.1807848 0.5535039 0.106992
0.1795959 0.5555569 0.1053851
0.1783862 0.5575901 0.1037688
0.1771553 0.5596032 0.1021433
0.1759031 0.561596 0.1005089
0.1746293 0.563568 0.09886619
0.1733336 0.565519 0.0972154
0.1720159 0.5674485 0.09555697
0.1706758 0.5693564 0.09389132
0.1693131 0.5712422 0.09221887
0.1679276 0.5731056 0.09054008
0.1665191 0.5749462 0.08885541
0.1650873 0.5767639 0.08716534
0.1636321 0.5785581 0.08547035
0.1621531 0.5803287 0.08377097
0.1606502 0.5820752 0.08206772
0.1591232 0.5837974 0.08036114
0.1575718 0.5854949 0.07865179
0.1559959 0.5871674 0.07694026
0.1543953 0.5888147 0.07522713
0.1527699 0.5904363 0.07351302
0.1511193 0.592032 0.07179855
0.1494435 0.5936016 0.07008438
0.1477423 0.5951446 0.06837117
0.1460156 0.5966609 0.0666596
0.1442633 0.5981502 0.06495037
0.1424851 0.5996121 0.06324419
0.1406811 0.6010465 0.06154181
0.138851 0.602453 0.05984396
0.1369949 0.6038315 0.05815143
0.1351126 0.6051817 0.05646499
0.1332041 0.6065034 0.05478545
0.1312693 0.6077963 0.05311362
0.1293082 0.6090604 0.05145033
0.1273209 0.6102954 0.04979645
0.1253072 0.611501 0.04815283
0.1232672 0.6126773 0.04652034
0.121201 0.613824 0.0448999
0.1191086 0.6149411 0.0432924
0.11699 0.6160283 0.04169876
0.1148454 0.6170857 0.04011992
0.1126748 0.6181131 0.03855682
0.1104785 0.6191105 0.03701042
0.1082565 0.6200779 0.03548169
0.106009 0.6210152 0.03397159
0.1037362 0.6219225 0.03248113
0.1014384 0.6227997 0.03101129
0.09911569 0.623647 0.02956306
0.09676841 0.6244643 0.02813746
0.09439683 0.6252519 0.0267355
0.09200125 0.6260097 0.02535818
0.08958199 0.6267379 0.02400653
0.08713942 0.6274368 0.02268157
0.0846739 0.6281065 0.0213843
0.08218584 0.6287471 0.02011574
0.07967566 0.629359 0.01887692
0.07714381 0.6299424 0.01766883
0.07459075 0.6304976 0.01649249
0.072017 0.6310249 0.01534889
0.06942306 0.6315247 0.01423901
0.06680948 0.6319973 0.01316384
0.06417683 0.6324431 0.01212435
0.06152572 0.6328626 0.0111215
0.05885674 0.6332562 0.01015621
0.05617055 0.6336243 0.009229427
0.0534678 0.6339676 0.00834205
0.05074918 0.6342865 0.007494969
0.0480154 0.6345815 0.006689055
0.04526719 0.6348534 0.005925153
0.04250529 0.6351026 0.005204088
0.03973049 0.6353299 0.004526659
0.03694356 0.6355358 0.003893637
0.03414531 0.6357211 0.003305767
0.03133658 0.6358866 0.002763764
0.0285182 0.6360329 0.002268311
0.02569104 0.6361607 0.001820062
0.02285597 0.636271 0.001419633
0.02001389 0.6363644 0.00106761
0.01716568 0.6364419 0.0007645403
0.01431228 0.6365042 0.0005109339
0.0114546 0.6365523 0.0003072636
0.008593586 0.6365869 0.0001539627
0.005730178 0.6366091 5.142422e-05
0.00286533 0.6366198 0
0 0.6366198 0

LINES 349 1047
2 0 1
2 1 2
2 2 3
2 3 4
2 4 5
2 5 6
2 6 7
2 7 8
2 8 9
2 9 10
2 10 11
2 11 12
2 12 13
2 13 14
2 14 15
2 15 16
2 16 17
2 17 18
2 18 19
2 19 20
2 20 21
2 21 22
2 22 23
2 23 24
2 24 25
2 25 26
2 26 27
2 27 28
2 28 29
2 29 30
2 30 31
2 31 32
2 32 33
2 33 34
2 34 35
2 35 36
2 36 37
2 37 38
2 38 39
2 39 40
2 40 41
2 41 42
2 42 43
2 43 44
2 44 45
2 45 46
2 46 47
2 47 48
2 48 49
2 49 50
2 50 51
2 51 52
2 52 53
2 53 54
2 54 55
2 55 56
2 56 57
2 57 58
2 58 59
2 59 60
2 60 61
2 61 62
2 62 63
2 63 64
2 64 65
2 65 66
2 66 67
2 67 68
2 68 69
2 69 70
2 70 71
2 71 72
2 72 73
2 73 74
2 74 75
2 75 76
2 76 77
2 77 78
2 78 79
2 79 80
2 80 81
2 81 82
2 82 83
2 83 84
2 84 85
2 85 86
2 86 87
2 87 88
2 88 89
2 89 90
2 90 91
2 91 92
2 92 93
2 93 94
2 94 95
2 95 96
2 96 97
2 97 98
2 98 99
2 99 100
2 100 101
2 101 102
2 102 103
2 103 104
2 104 105
2 105 106
2 106 107
2 107 108
2 108 109
2 109 110
2 110 111
2 111 112
2 112 113
2 113 114
2 114 115
2 115 116
2 116 117
2 117 118
2 118 119
2 119 120
2 120 121
2 121 122
2 122 123
2 123 124
2 124 125
2 125 126
2 126 127
2 127 128
2 128 129
2 129 130
2 130 131
2 131 132
2 132 133
2 133 134
2 134 135
2 135 136
2 136 137
2 137 138
2 138 139
2 139 140
2 140 141
2 141 142
2 142 143
2 143 144
2 144 145
2 145 146
2 146 147
2 147 148
2 148 149
2 149 150
2 150 151
2 151 152
2 152 153
2 153 154
2 154 155
2 155 156
2 156 157
2 157 158
2 158 159
2 159 160
2 160 161
2 161 162
2 162 163
2 163 164
2 164 165
2 165 166
2 166 167
2 167 168
2 168 169
2 169 170
2 170 171
2 171 172
2 172 173
2 173 174
2 174 175
2 175 176
2 176 177
2 177 178
2 178 179
2 179 180
2 180 181
2 181 182
2 182 183
2 183 184
2 184 185
2 185 186
2 186 187
2 187 188
2 188 189
2 189 190
2 190 191
2 191 192
2 192 193
2 193 194
2 194 195
2 195 196
2 196 197
2 197 198
2 198 199
2 199 200
2 200 201
2 201 202
2 202 203
2 203 204
2 204 205
2 205 206
2 206 207
2 207 208
2 208 209
2 209 210
2 210 211
2 211 212
2 212 213
2 213 214
2 214 215
2 215 216
2 216 217
2 217 218
2 218 219
2 219 220
2 220 221
2 221 222
2 222 223
2 223 224
2 224 225
2 225 226
2 226 227
2 227 228
2 228 229
2 229 230
2 230 231
2 231 232
2 232 233
2 233 234
2 234 235
2 235 236
2 236 237
2 237 238
2 238 239
2 239 240
2 240 241
2 241 242
2 242 243
2 243 244
2 244 245
2 245 246
2 246 247
2 247 248
2 248 249
2 249 250
2 250 251
2 251 252
2 252 253
2 253 254
2 254 255
2 255 256
2 256 257
2 257 258
2 258 259
2 259 260
2 260 261
2 261 262
2 262 263
2 263 264
2 264 265
2 265 266
2 266 267
2 267 268
2 268 269
2 269 270
2 270 271
2 271 272
2 272 273
2 273 274
2 274 275
2 275 276
2 276 277
2 277 278
2 278 279
2 279 280
2 280 281
2 281 282
2 282 283
2 283 284
2 284 285
2 285 286
2 286 287
2 287 288
2 288 289
2 289 290
2 290 291
2 291 292
2 292 293
2 293 294
2 294 295
2 295 296
2 296 297
2 297 298
2 298 299
2 299 300
2 300 301
2 301 302
2 302 303
2 303 304
2 304 305
2 305 306
2 306 307
2 307 308
2 308 309
2 309 310
2 310 311
2 311 312
2 312 313
2 313 314
2 314 315
2 315 316
2 316 317
2 317 318
2 318 319
2 319 320
2 320 321
2 321 322
2 322 323
2 323 324
2 324 325
2 325 326
2 326 327
2 327 328
2 328 329
2 329 330
2 330 331
2 331 332
2 332 333
2 333 334
2 334 335
2 335 336
2 336 337
2 337 338
2 338 339
2 339 340
2 340 341
2 341 342
2 342 343
2 343 344
2 344 345
2 345 346
2 346 347
2 347 348
2 348 349


POINT_DATA 350
SCALARS a FLOAT 1
LOOKUP_TABLE default
0.0005894628
0.0005894628
0.0005894628
0.0005894628
0.0005894628
0.0005894628
0.0005894628
0.0005894628
0.0005894628
0.0005894628
0.0005894628
0.0005894628
0.0005894628
0.0005894628
0.0005894628
0.0005894628
0.0005894628
0.0005894628
0.0005894628
0.0005894628
0.0005894628
0.0005894628
0.0005894628
0.0005894628
0.0005894628
0.0005894628
0.0005894628
0.0005894628
0.0005894628
0.0005894628
0.0005894628
0.0005894628
0.0005894628
0.0005894628
0.0005894628
0.0005894628
0.0005894628
0.0005894628
0.0005894628
0.0005894628
0.0005894628
0.0005894628
0.0005894628
0.0005894628
0.0005894628
0.0005894628
0.0005894628
0.0005894628
0.0005894628
0.0005894628
0.0005894628
0.0005894628
0.0005894628
0.0005894628
0.0005894628
0.0005894628
0.0005894628
0.0005894628
0.0005894628
0.0005894628
0.0005894628
0.0005894628
0.0005894628
0.0005894628
0.0005894628
0.0005894628
0.0005894628
0.0005894628
0.0005894628
0.0005894628
0.0005894628
0.0005894628
0.0005894628
0.0005894628
0.0005894628
0.0005894628
0.0005894628
0.0005894628
0.0005894628
0.0005894628
0.0005894628
0.0005894628
0.0005894628
0.0005894628
0.0005894628
0.0005894628
0.0005894628
0.0005894628
0.0005894628
0.0005894628
0.0005894628
0.0005894628
0.0005894628
0.0005894628
0.0005894628
0.0005894628
0.0005894628
0.0005894628
0.0005894628
0.0005894628
0.0005894628
0.0005894628
0.0005894628
0.0005894628
0.0005894628
0.0005894628
0.0005894628
0.0005894628
0.0005894628
0.0005894628
0.0005894628
0.0005894628
0.0005894628
0.0005894628
0.0005894628
0.0005894628
0.0005894628
0.0005894628
0.0005894628
0.0005894628
0.0005894628
0.0005894628
0.0005894628
0.0005894628
0.0005894628
0.0005894628
0.0005894628
0.0005894628
0.0005894628
0.0005894628
0.0005894628
0.0005894628
0.0005894628
0.0005894628
0.0005894628
0.0005894628
0.0005894628
0.0005894628
0.0005894628
0.0005894628
0.0005894628
0.0005894628
0.0005894628
0.0005894628
0.0005894628
0.0005894628
0.0005894628
0.0005894628
0.0005894628
0.0005894628
0.0005894628
0.0005894628
0.0005894628
0.0005894628
0.0005894628
0.0005894628
0.0005894628
0.0005894628
0.0005894628
0.0005894628
0.0005894628
0.0005894628
0.0005894628
0.0005894628
0.0005894628
0.0005894628
0.0005894628
0.0005894628
0.0005894628
0.0005894628
0.0005894628
0.0005894628
0.0005894628
0.0005894628
0.0005894628
0.0005894628
0.0005894628
0.0005894628
0.0005894628
0.0005894628
0.0005894628
0.0005894628
0.0005894628
0.0005894628
0.0005894628
0.0005894628
0.0005894628
0.0005894628
0.0005894628
0.0005894628
0.0005894628
0.0005894628
0.0005894628
0.0005894628
0.0005894628
0.0005894628
0.0005894628
0.0005894628
0.0005894628
0.0005894628
0.0005894628
0.0005894628
0.0005894628
0.0005894628
0.0005894628
0.0005894628
0.0005894628
0.0005894628
0.0005894628
0.0005894628
0.0005894628
0.0005894628
0.0005894628
0.0005894628
0.0005894628
0.0005894628
0.0005894628
0.0005894628
0.0005894628
0.0005894628
0.0005894628
0.0005894628
0.0005894628
0.0005894628
0.0005894628
0.0005894628
0.0005894628
0.0005894628
0.0005894628
0.0005894628
0.0005894628
0.0005894628
0.0005894628
0.0005894628
0.0005894628
0.0005894628
0.0005894628
0.0005894628
0.0005894628
0.0005894628
0.0005894628
0.0005894628
0.0005894628
0.0005894628
0.0005894628
0.0005894628
0.0005894628
0.0005894628
0.0005894628
0.0005894628
0.0005894628
0.0005894628
0.0005894628
0.0005894628
0.0005894628
0.0005894628
0.0005894628
0.0005894628
0.0005894628
0.0005894628
0.0005894628
0.0005894628
0.0005894628
0.0005894628
0.0005894628
0.0005894628
0.0005894628
0.0005894628
0.0005894628
0.0005894628
0.0005894628
0.0005894628
0.0005894628
0.0005894628
0.0005894628
0.0005894628
0.0005894628
0.0005894628
0.0005894628
0.0005894628
0.0005894628
0.0005894628
0.0005894628
0.0005894628
0.0005894628
0.0005894628
0.0005894628
0.0005894628
0.0005894628
0.0005894628
0.0005894628
0.0005894628
0.0005894628
0.0005894628
0.0005894628
0.0005894628
0.0005894628
0.0005894628
0.0005894628
0.0005894628
0.0005894628
0.0005894628
0.0005894628
0.0005894628
0.0005894628
0.0005894628
0.0005894628
0.0005894628
0.0005894628
0.0005894628
0.0005894628
0.0005894628
0.0005894628
0.0005894628
0.0005894628
0.0005894628
0.0005894628
0.0005894628
0.0005894628
0.0005894628
0.0005894628
0.0005894628
0.0005894628
0.0005894628
0.0005894628
0.0005894628
0.0005894628
0.0005894628
0.0005894628
0.0005894628
0.0005894628
0.0005894628
0.0005894628
0.0005894628
0.0005894628
0.0005894628
0.0005894628
0.0005894628
0.0005894628
0.0005894628
0.0005894628
0.0005894628
0.0005894628
0.0005894628
0.0005894628
0.0005894628
0.0005894628
0.0005894628
0.0005894628
0.0005894628


SCALARS b FLOAT 1
LOOKUP_TABLE default
0.04420971
0.04420971
0.04420971
0.04420971
0.04420971
0.04420971
0.04420971
0.04420971
0.04420971
0.04420971
0.04420971
0.04420971
0.04420971
0.04420971
0.04420971
0.04420971
0.04420971
0.04420971
0.04420971
0.04420971
0.04420971
0.04420971
0.04420971
0.04420971
0.04420971
0.04420971
0.04420971
0.04420971
0.04420971
0.04420971
0.04420971
0.04420971
0.04420971
0.04420971
0.04420971
0.04420971
0.04420971
0.04420971
0.04420971
0.04420971
0.04420971
0.04420971
0.04420971
0.04420971
0.04420971
0.04420971
0.04420971
0.04420971
0.04420971
0.04420971
0.04420971
0.04420971
0.04420971
0.04420971
0.04420971
0.04420971
0.04420971
0.04420971
0.04420971
0.04420971
0.04420971
0.04420971
0.04420971
0.04420971
0.04420971
0.04420971
0.04420971
0.04420971
0.04420971
0.04420971
0.04420971
0.04420971
0.04420971
0.04420971
0.04420971
0.04420971
0.04420971
0.04420971
0.04420971
0.04420971
0.04420971
0.04420971
0.04420971
0.04420971
0.04420971
0.04420971
0.04420971
0.04420971
0.04420971
0.04420971
0.04420971
0.04420971
0.04420971
0.04420971
0.04420971
0.04420971
0.04420971
0.04420971
0.04420971
0.04420971
0.04420971
0.04420971
0.04420971
0.04420971
0.04420971
0.04420971
0.04420971
0.04420971
0.04420971
0.04420971
0.04420971
0.04420971
0.04420971
0.04420971
0.04420971
0.04420971
0.04420971
0.04420971
0.04420971
0.04420971
0.04420971
0.04420971
0.04420971
0.04420971
0.04420971
0.04420971
0.04420971
0.04420971
0.04420971
0.04420971
0.04420971
0.04420971
0.04420971
0.04420971
0.04420971
0.04420971
0.04420971
0.04420971
0.04420971
0.04420971
0.04420971
0.04420971
0.04420971
0.04420971
0.04420971
0.04420971
0.04420971
0.04420971
0.04420971
0.04420971
0.04420971
0.04420971
0.04420971
0.04420971
0.04420971
0.04420971
0.04420971
0.04420971
0.04420971
0.04420971
0.04420971
0.04420971
0.04420971
0.04420971
0.04420971
0.04420971
0.04420971
0.04420971
0.04420971
0.04420971
0.04420971
0.04420971
0.04420971
0.04420971
0.04420971
0.04420971
0.04420971
0.04420971
0.04420971
0.04420971
0.04420971
0.04420971
0.04420971
0.04420971
0.04420971
0.04420971
0.04420971
0.04420971
0.04420971
0.04420971
0.04420971
0.04420971
0.04420971
0.04420971
0.04420971
0.04420971
0.04420971
0.04420971
0.04420971
0.04420971
0.04420971
0.04420971
0.04420971
0.04420971
0.04420971
0.04420971
0.04420971
0.04420971
0.04420971
0.04420971
0.04420971
0.04420971
0.04420971
0.04420971
0.04420971
0.04420971
0.04420971
0.04420971
0.04420971
0.04420971
0.04420971
0.04420971
0.04420971
0.04420971
0.04420971
0.04420971
0.04420971
0.04420971
0.04420971
0.04420971
0.04420971
0.04420971
0.04420971
0.04420971
0.04420971
0.04420971
0.04420971
0.04420971
0.04420971
0.04420971
0.04420971
0.04420971
0.04420971
0.04420971
0.04420971
0.04420971
0.04420971
0.04420971
0.04420971
0.04420971
0.04420971
0.04420971
0.04420971
0.04420971
0.04420971
0.04420971
0.04420971
0.04420971
0.04420971
0.04420971
0.04420971
0.04420971
0.04420971
0.04420971
0.04420971
0.04420971
0.04420971
0.04420971
0.04420971
0.04420971
0.04420971
0.04420971
0.04420971
0.04420971
0.04420971
0.04420971
0.04420971
0.04420971
0.04420971
0.04420971
0.04420971
0.04420971
0.04420971
0.04420971
0.04420971
0.04420971
0.04420971
0.04420971
0.04420971
0.04420971
0.04420971
0.04420971
0.04420971
0.04420971
0.04420971
0.04420971
0.04420971
0.04420971
0.04420971
0.04420971
0.04420971
0.04420971
0.04420971
0.04420971
0.04420971
0.04420971
0.04420971
0.04420971
0.04420971
0.04420971
0.04420971
0.04420971
0.04420971
0.04420971
0.04420971
0.04420971
0.04420971
0.04420971
0.04420971
0.04420971
0.04420971
0.04420971
0.04420971
0.04420971
0.04420971
0.04420971
0.04420971
0.04420971
0.04420971
0.04420971
0.04420971
0.04420971
0.04420971
0.04420971
0.04420971
0.04420971
0.04420971
0.04420971
0.04420971
0.04420971
0.04420971
0.04420971
0.04420971
0.04420971
0.04420971
0.04420971
0.04420971
0.04420971
0.04420971
0.04420971


VECTORS d1 FLOAT
0 0.1932412 0.9811513
-0.01832574 0.2114575 0.9772154
-0.03660831 0.2294963 0.9726208
-0.05483236 0.2473435 0.9673751
-0.07298274 0.264985 0.9614866
-0.09104452 0.2824075 0.9549643
-0.1090031 0.2995977 0.9478183
-0.126844 0.3165431 0.9400591
-0.1445532 0.3332315 0.931698
-0.1621171 0.3496511 0.9227471
-0.1795222 0.3657909 0.9132189
-0.1967557 0.38164 0.9031269
-0.2138048 0.3971883 0.8924847
-0.2306576 0.4124263 0.8813068
-0.2473023 0.4273449 0.8696079
-0.2637276 0.4419355 0.8574035
-0.2799227 0.4561903 0.8447092
-0.2958775 0.470102 0.8315411
-0.311582 0.4836636 0.8179157
-0.3270269 0.4968691 0.8038498
-0.3422036 0.5097128 0.7893602
-0.3571036 0.5221897 0.7744643
-0.3717193 0.5342952 0.7591794
-0.3860434 0.5460255 0.7435232
-0.4000691 0.5573772 0.7275131
-0.4137904 0.5683475 0.7111671
-0.4272015 0.5789341 0.6945028
-0.4402973 0.5891354 0.6775381
-0.4530731 0.5989501 0.6602905
-0.4655249 0.6083775 0.6427779
-0.4776489 0.6174175 0.6250177
-0.4894422 0.6260703 0.6070275
-0.500902 0.6343367 0.5888244
-0.5120262 0.6422179 0.5704256
-0.522813 0.6497156 0.551848
-0.5332614 0.6568318 0.5331082
-0.5433703 0.663569 0.5142226
-0.5531396 0.66993 0.4952074
-0.5625691 0.6759182 0.4760783
-0.5716595 0.681537 0.4568509
-0.5804115 0.6867904 0.4375403
-0.5888263 0.6916825 0.4181614
-0.5969055 0.6962179 0.3987286
-0.604651 0.7004014 0.3792559
-0.6120651 0.7042379 0.3597572
-0.6191503 0.7077329 0.3402456
-0.6259094 0.7108917 0.3207341
-0.6323456 0.7137201 0.3012352
-0.6384623 0.7162239 0.2817609
-0.644263 0.7184093 0.2623229
-0.6497518 0.7202823 0.2429323
-0.6549326 0.7218493 0.2236
-0.6598097 0.7231168 0.2043363
-0.6643876 0.7240912 0.1851512
-0.668671 0.7247793 0.1660541
-0.6726647 0.7251878 0.1470542
-0.6763735 0.7253233 0.1281601
-0.6798026 0.7251927 0.10938
-0.6829572 0.7248028 0.09072169
-0.6858424 0.7241604 0.07219269
-0.6884639 0.7232725 0.05379994
-0.6908268 0.7221458 0.03555006
-0.6929369 0.7207871 0.01744926
-0.6947996 0.7192032 -0.0004966393
-0.6964206 0.7174009 -0.01828217
-0.6978056 0.7153869 -0.03590226
-0.6989601 0.7131678 -0.05335217
-0.69989 0.7107502 -0.07062754
-0.7006008 0.7081405 -0.08772433
-0.7010983 0.7053453 -0.1046388
-0.7013881 0.7023707 -0.1213677
-0.7014759 0.6992232 -0.1379078
-0.7013673 0.6959087 -0.1542565
-0.7010679 0.6924333 -0.1704112
-0.7005833 0.6888029 -0.1863697
-0.6999189 0.6850233 -0.2021302
-0.6990803 0.6811001 -0.217691
-0.6980727 0.677039 -0.2330507
-0.6969016 0.6728453 -0.2482082
-0.6955722 0.6685243 -0.2631625
-0.6940897 0.6640812 -0.2779129
-0.6924593 0.6595209 -0.292459
-0.6906859 0.6548484 -0.3068004
-0.6887746 0.6500684 -0.3209372
-0.6867302 0.6451854 -0.3348693
-0.6845575 0.6402039 -0.348597
-0.6822613 0.6351283 -0.3621209
-0.6798462 0.6299626 -0.3754414
-0.6773167 0.6247109 -0.3885593
-0.6746773 0.6193771 -0.4014756
-0.6719323 0.6139648 -0.4141912
-0.6690859 0.6084776 -0.4267072
-0.6661425 0.602919 -0.4390249
-0.663106 0.5972922 -0.4511457
-0.6599805 0.5916004 -0.4630711
-0.6567697 0.5858465 -0.4748025
-0.6534777 0.5800334 -0.4863416
-0.650108 0.5741639 -0.4976901
-0.6466643 0.5682404 -0.5088498
-0.6431502 0.5622654 -0.5198225
-0.639569 0.5562412 -0.5306101
-0.6359243 0.55017 -0.5412147
-0.6322192 0.5440537 -0.5516381
-0.6284569 0.5378942 -0.5618823
-0.6246407 0.5316933 -0.5719496
-0.6207734 0.5254526 -0.5818419
-0.6168582 0.5191735 -0.5915613
-0.6128979 0.5128576 -0.60111
-0.6088953 0.5065059 -0.6104901
-0.6048533 0.5001197 -0.6197038
-0.6007744 0.4937 -0.6287531
-0.5966613 0.4872475 -0.6376403
-0.5925166 0.4807632 -0.6463674
-0.5883428 0.4742477 -0.6549366
-0.5841423 0.4677015 -0.6633499
-0.5799177 0.4611251 -0.6716094
-0.5756711 0.4545188 -0.6797172
-0.571405 0.4478829 -0.6876752
-0.5671217 0.4412175 -0.6954855
-0.5628233 0.4345228 -0.70315
-0.5585121 0.4277986 -0.7106705
-0.5541903 0.4210449 -0.718049
-0.54986 0.4142614 -0.7252872
-0.5455234 0.4074478 -0.7323869
-0.5411825 0.4006038 -0.7393498
-0.5368396 0.3937289 -0.7461775
-0.5324967 0.3868225 -0.7528716
-0.5281559 0.3798842 -0.7594336
-0.5238194 0.3729132 -0.7658649
-0.5194892 0.3659087 -0.772167
-0.5151675 0.35887 -0.7783411
-0.5108564 0.3517962 -0.7843884
-0.5065582 0.3446864 -0.7903101
-0.5022751 0.3375395 -0.7961073
-0.4980093 0.3303547 -0.8017808
-0.4937631 0.3231307 -0.8073317
-0.489539 0.3158665 -0.8127607
-0.4853392 0.3085609 -0.8180684
-0.4811664 0.3012127 -0.8232556
-0.4770231 0.2938206 -0.8283226
-0.472912 0.2863833 -0.83327
-0.4688358 0.2788996 -0.8380978
-0.4647975 0.2713681 -0.8428064
-0.4608 0.2637873 -0.8473958
-0.4568465 0.2561561 -0.8518658
-0.4529402 0.2484729 -0.8562163
-0.4490847 0.2407364 -0.8604469
-0.4452834 0.2329452 -0.8645572
-0.4415402 0.225098 -0.8685466
-0.4378592 0.2171933 -0.8724141
-0.4342445 0.2092299 -0.876159
-0.4307006 0.2012065 -0.8797801
-0.4272321 0.1931219 -0.8832761
-0.4238442 0.1849751 -0.8866455
-0.420542 0.1767649 -0.8898869
-0.4173311 0.1684904 -0.8929982
-0.4142174 0.160151 -0.8959774
-0.4112072 0.151746 -0.8988225
-0.4083069 0.143275 -0.9015308
-0.4055234 0.1347381 -0.9040998
-0.402864 0.1261352 -0.9065266
-0.4003362 0.117467 -0.9088082
-0.3979479 0.1087344 -0.9109414
-0.3957072 0.09993871 -0.9129228
-0.3936225 0.09108178 -0.9147489
-0.391702 0.08216603 -0.916416
-0.3899545 0.07319451 -0.9179205
-0.3883881 0.06417089 -0.9192588
-0.387011 0.05509956 -0.9204273
-0.3858309 0.04598559 -0.9214227
-0.3848548 0.03683477 -0.9222418
-0.3840887 0.02765355 -0.922882
-0.3835377 0.01844896 -0.9233409
-0.3832055 0.009228491 -0.923617
-0.3830946 2.498062e-09 -0.9237091
-0.3832055 -0.009228486 -0.923617
-0.3835377 -0.01844895 -0.9233409
-0.3840887 -0.02765355 -0.922882
-0.3848548 -0.03683477 -0.9222418
-0.3858309 -0.04598558 -0.9214227
-0.387011 -0.05509955 -0.9204273
-0.3883881 -0.06417089 -0.9192588
-0.3899545 -0.07319451 -0.9179205
-0.391702 -0.08216603 -0.916416
-0.3936225 -0.09108177 -0.9147489
-0.3957072 -0.0999387 -0.9129228
-0.3979479 -0.1087344 -0.9109414
-0.4003362 -0.117467 -0.9088082
-0.402864 -0.1261352 -0.9065266
-0.4055234 -0.1347381 -0.9040998
-0.4083069 -0.143275 -0.9015308
-0.4112072 -0.151746 -0.8988225
-0.4142174 -0.160151 -0.8959774
-0.4173311 -0.1684904 -0.8929982
-0.420542 -0.1767648 -0.8898869
-0.4238442 -0.1849751 -0.8866455
-0.4272321 -0.1931219 -0.8832761
-0.4307006 -0.2012065 -0.8797801
-0.4342445 -0.2092299 -0.876159
-0.4378592 -0.2171933 -0.8724141
-0.4415402 -0.225098 -0.8685466
-0.4452834 -0.2329452 -0.8645572
-0.4490847 -0.2407364 -0.8604469
-0.4529402 -0.2484729 -0.8562163
-0.4568465 -0.2561561 -0.8518658
-0.4608 -0.2637873 -0.8473958
-0.4647975 -0.2713681 -0.8428064
-0.4688358 -0.2788996 -0.8380978
-0.472912 -0.2863833 -0.83327
-0.4770231 -0.2938206 -0.8283226
-0.4811664 -0.3012127 -0.8232556
-0.4853392 -0.3085609 -0.8180684
-0.489539 -0.3158665 -0.8127607
-0.4937631 -0.3231307 -0.8073317
-0.4980093 -0.3303547 -0.8017808
-0.5022751 -0.3375395 -0.7961073
-0.5065582 -0.3446864 -0.7903101
-0.5108564 -0.3517962 -0.7843884
-0.5151675 -0.35887 -0.7783411
-0.5194892 -0.3659087 -0.772167
-0.5238194 -0.3729132 -0.7658649
-0.5281559 -0.3798842 -0.7594336
-0.5324967 -0.3868225 -0.7528716
-0.5368396 -0.3937289 -0.7461775
-0.5411825 -0.4006038 -0.7393498
-0.5455234 -0.4074478 -0.7323869
-0.54986 -0.4142614 -0.7252872
-0.5541903 -0.4210449 -0.718049
-0.5585121 -0.4277986 -0.7106705
-0.5628233 -0.4345228 -0.70315
-0.5671217 -0.4412175 -0.6954855