# vtk DataFile Version 2.0
Written badly by Kevin Korner
ASCII
DATASET POLYDATA
POINTS 350 FLOAT
0 0 0
0.00286533 0 0
0.005730529 2.599899e-05 8.192007e-06
0.008595341 7.800524e-05 2.446744e-05
0.01145951 0.0001560243 4.871738e-05
0.01432277 0.0002600588 8.083263e-05
0.01718486 0.0003901087 0.0001207037
0.02004555 0.0005461712 0.0001682208
0.02290456 0.0007282408 0.0002232738
0.02576164 0.0009363092 0.0002857527
0.02861654 0.001170365 0.0003555467
0.03146901 0.001430396 0.0004325453
0.03431879 0.001716384 0.0005166376
0.03716563 0.002028312 0.0006077126
0.04000929 0.002366157 0.0007056589
0.04284951 0.002729895 0.0008103654
0.04568604 0.003119499 0.0009217205
0.04851864 0.003534941 0.001039613
0.05134706 0.003976188 0.00116393
0.05417105 0.004443205 0.001294561
0.05699038 0.004935956 0.001431394
0.05980479 0.005454401 0.001574317
0.06261404 0.005998498 0.001723218
0.06541789 0.006568202 0.001877986
0.06821611 0.007163468 0.002038508
0.07100844 0.007784244 0.002204672
0.07379466 0.008430481 0.002376367
0.07657453 0.009102122 0.00255348
0.0793478 0.009799112 0.002735901
0.08211424 0.01052139 0.002923517
0.08487363 0.0112689 0.003116217
0.08762572 0.01204157 0.00331389
0.09037029 0.01283935 0.003516423
0.0931071 0.01366215 0.003723706
0.09583593 0.01450991 0.003935628
0.09855654 0.01538256 0.004152077
0.1012687 0.01628003 0.004372944
0.1039722 0.01720223 0.004598116
0.1066668 0.01814908 0.004827485
0.1093524 0.01912051 0.005060939
0.1120285 0.02011643 0.005298369
0.1146951 0.02113676 0.005539665
0.117352 0.0221814 0.005784717
0.1199988 0.02325027 0.006033417
0.1226354 0.02434327 0.006285655
0.1252617 0.02546031 0.006541322
0.1278772 0.0266013 0.006800311
0.1304819 0.02776613 0.007062512
0.1330756 0.02895471 0.007327819
0.135658 0.03016693 0.007596123
0.1382288 0.03140269 0.007867319
0.140788 0.03266188 0.008141298
0.1433353 0.03394439 0.008417954
0.1458705 0.03525012 0.008697182
0.1483934 0.03657895 0.008978876
0.1509038 0.03793077 0.00926293
0.1534015 0.03930546 0.00954924
0.1558862 0.0407029 0.009837701
0.1583579 0.04212297 0.01012821
0.1608163 0.04356556 0.01042066
0.1632611 0.04503054 0.01071495
0.1656923 0.04651779 0.01101098
0.1681096 0.04802717 0.01130865
0.1705128 0.04955856 0.01160785
0.1729017 0.05111183 0.01190848
0.1752762 0.05268684 0.01221044
0.1776361 0.05428347 0.01251364
0.1799812 0.05590158 0.01281797
0.1823112 0.05754103 0.01312333
0.184626 0.05920168 0.01342962
0.1869255 0.06088339 0.01373675
0.1892095 0.06258602 0.01404462
0.1914777 0.06430943 0.01435313
0.19373 0.06605347 0.01466218
0.1959662 0.06781799 0.01497169
0.1981862 0.06960284 0.01528155
0.2003898 0.07140789 0.01559166
0.2025768 0.07323296 0.01590195
0.204747 0.07507792 0.0162123
0.2069004 0.0769426 0.01652263
0.2090366 0.07882686 0.01683285
0.2111556 0.08073053 0.01714287
0.2132571 0.08265345 0.01745258
0.2153411 0.08459546 0.01776192
0.2174074 0.08655641 0.01807077
0.2194557 0.08853613 0.01837907
0.221486 0.09053445 0.01868671
0.2234982 0.09255121 0.01899361
0.2254919 0.09458624 0.01929968
0.2274672 0.09663938 0.01960484
0.2294238 0.09871045 0.01990901
0.2313616 0.1007993 0.02021209
0.2332804 0.1029057 0.020514
0.2351802 0.1050295 0.02081466
0.2370607 0.1071706 0.021114
0.2389218 0.1093287 0.02141191
0.2407634 0.1115037 0.02170833
0.2425854 0.1136955 0.02200318
0.2443875 0.1159037 0.02229637
0.2461698 0.1181283 0.02258783
0.2479319 0.1203691 0.02287748
0.2496739 0.1226258 0.02316525
0.2513955 0.1248983 0.02345104
0.2530967 0.1271865 0.0237348
0.2547773 0.12949 0.02401645
0.2564372 0.1318088 0.02429591
0.2580763 0.1341426 0.02457311
0.2596944 0.1364913 0.02484797
0.2612914 0.1388547 0.02512044
0.2628672 0.1412325 0.02539043
0.2644218 0.1436245 0.02565787
0.2659549 0.1460307 0.02592271
0.2674664 0.1484507 0.02618487
0.2689563 0.1508845 0.02644428
0.2704245 0.1533317 0.02670088
0.2718707 0.1557922 0.0269546
0.273295 0.1582658 0.02720538
0.2746972 0.1607523 0.02745316
0.2760772 0.1632514 0.02769788
0.2774349 0.1657631 0.02793946
0.2787702 0.168287 0.02817786
0.280083 0.170823 0.02841301
0.2813733 0.1733709 0.02864486
0.2826408 0.1759304 0.02887334
0.2838856 0.1785014 0.02909841
0.2851075 0.1810837 0.02932
0.2863064 0.1836769 0.02953806
0.2874823 0.1862811 0.02975254
0.288635 0.1888958 0.02996338
0.2897646 0.1915209 0.03017053
0.2908708 0.1941563 0.03037395
0.2919536 0.1968016 0.03057358
0.293013 0.1994567 0.03076937
0.2940488 0.2021213 0.03096128
0.295061 0.2047953 0.03114926
0.2960495 0.2074784 0.03133327
0.2970142 0.2101705 0.03151325
0.2979551 0.2128712 0.03168917
0.2988721 0.2155804 0.03186099
0.2997651 0.2182978 0.03202865
0.300634 0.2210233 0.03219213
0.3014789 0.2237566 0.03235138
0.3022996 0.2264976 0.03250637
0.303096 0.2292458 0.03265705
0.3038682 0.2320013 0.0328034
0.304616 0.2347637 0.03294537
0.3053394 0.2375327 0.03308293
0.3060384 0.2403083 0.03321606
0.3067128 0.2430902 0.03334471
0.3073627 0.2458781 0.03346886
0.307988 0.2486718 0.03358848
0.3085887 0.2514711 0.03370353
0.3091646 0.2542758 0.033814
0.3097158 0.2570856 0.03391986
0.3102423 0.2599003 0.03402107
0.3107439 0.2627197 0.03411763
0.3112207 0.2655436 0.03420949
0.3116726 0.2683717 0.03429665
0.3120995 0.2712039 0.03437908
0.3125015 0.2740398 0.03445677
0.3128786 0.2768793 0.03452969
0.3132306 0.2797221 0.03459782
0.3135576 0.282568 0.03466115
0.3138595 0.2854168 0.03471967
0.3141363 0.2882682 0.03477337
0.3143881 0.291122 0.03482222
0.3146147 0.293978 0.03486622
0.3148162 0.296836 0.03490535
0.3149925 0.2996957 0.03493962
0.3151436 0.3025569 0.034969
0.3152696 0.3054194 0.0349935
0.3153704 0.3082828 0.0350131
0.315446 0.3111471 0.03502781
0.3154964 0.314012 0.03503762
0.3155217 0.3168772 0.03504252
0.3155217 0.3197426 0.03504252
0.3154964 0.3226078 0.03503762
0.315446 0.3254726 0.03502781
0.3153704 0.3283369 0.0350131
0.3152696 0.3312004 0.0349935
0.3151436 0.3340629 0.034969
0.3149925 0.3369241 0.03493962
0.3148162 0.3397838 0.03490535
0.3146147 0.3426417 0.03486622
0.3143881 0.3454977 0.03482222
0.3141363 0.3483516 0.03477337
0.3138595 0.351203 0.03471967
0.3135576 0.3540518 0.03466115
0.3132306 0.3568977 0.03459782
0.3128786 0.3597405 0.03452969
0.3125015 0.36258 0.03445677
0.3120995 0.3654159 0.03437908
0.3116726 0.368248 0.03429665
0.3112207 0.3710762 0.03420949
0.3107439 0.3739 0.03411763
0.3102423 0.3767195 0.03402107
0.3097158 0.3795342 0.03391986
0.3091646 0.382344 0.033814
0.3085887 0.3851487 0.03370353
0.307988 0.387948 0.03358848
0.3073627 0.3907417 0.03346886
0.3067128 0.3935296 0.03334471
0.3060384 0.3963114 0.03321606
0.3053394 0.399087 0.03308293
0.304616 0.4018561 0.03294537
0.3038682 0.4046185 0.0328034
0.303096 0.4073739 0.03265705
0.3022996 0.4101222 0.03250637
0.3014789 0.4128631 0.03235138
0.300634 0.4155964 0.03219213
0.2997651 0.4183219 0.03202865
0.2988721 0.4210394 0.03186099
0.2979551 0.4237486 0.03168917
0.2970142 0.4264493 0.03151325
0.2960495 0.4291413 0.03133327
0.295061 0.4318244 0.03114926
0.2940488 0.4344984 0.03096128
0.293013 0.4371631 0.03076937
0.2919536 0.4398182 0.03057358
0.2908708 0.4424635 0.03037395
0.2897646 0.4450988 0.03017053
0.288635 0.447724 0.02996338
0.2874823 0.4503387 0.02975254
0.2863064 0.4529428 0.02953806
0.2851075 0.4555361 0.02932
0.2838856 0.4581184 0.02909841
0.2826408 0.4606894 0.02887334
0.2813733 0.4632489 0.02864486
0.280083 0.4657968 0.02841301
0.2787702 0.4683328 0.02817786
0.2774349 0.4708567 0.02793946
0.2760772 0.4733684 0.02769788
0.2746972 0.4758675 0.02745316
0.273295 0.478354 0.02720538
0.2718707 0.4808276 0.0269546
0.2704245 0.4832881 0.02670088
0.2689563 0.4857353 0.02644428
0.2674664 0.488169 0.02618487
0.2659549 0.4905891 0.02592271
0.2644218 0.4929952 0.02565787
0.2628672 0.4953873 0.02539043
0.2612914 0.4977651 0.02512044
0.2596944 0.5001285 0.02484797
0.2580763 0.5024771 0.02457311
0.2564372 0.504811 0.02429591
0.2547773 0.5071297 0.02401645
0.2530967 0.5094333 0.0237348
0.2513955 0.5117214 0.02345104
0.2496739 0.513994 0.02316525
0.2479319 0.5162507 0.02287748
0.2461698 0.5184915 0.02258783
0.2443875 0.5207161 0.02229637
0.2425854 0.5229243 0.02200318
0.2407634 0.525116 0.02170833
0.2389218 0.527291 0.02141191
0.2370607 0.5294492 0.021114
0.2351802 0.5315903 0.02081466
0.2332804 0.5337141 0.020514
0.2313616 0.5358205 0.02021209
0.2294238 0.5379093 0.01990901
0.2274672 0.5399804 0.01960484
0.2254919 0.5420335 0.01929968
0.2234982 0.5440686 0.01899361
0.221486 0.5460853 0.01868671
0.2194557 0.5480836 0.01837907
0.2174074 0.5500634 0.01807077
0.2153411 0.5520243 0.01776192
0.2132571 0.5539663 0.01745258
0.2111556 0.5558892 0.01714287
0.2090366 0.5577929 0.01683285
0.2069004 0.5596772 0.01652263
0.204747 0.5615419 0.0162123
0.2025768 0.5633868 0.01590195
0.2003898 0.5652119 0.01559166
0.1981862 0.5670169 0.01528155
0.1959662 0.5688018 0.01497169
0.19373 0.5705663 0.01466218
0.1914777 0.5723103 0.01435313
0.1892095 0.5740338 0.01404462
0.1869255 0.5757364 0.01373675
0.184626 0.5774181 0.01342962
0.1823112 0.5790787 0.01312333
0.1799812 0.5807182 0.01281797
0.1776361 0.5823363 0.01251364
0.1752762 0.5839329 0.01221044
0.1729017 0.5855079 0.01190848
0.1705128 0.5870612 0.01160785
0.1681096 0.5885926 0.01130865
0.1656923 0.590102 0.01101098
0.1632611 0.5915892 0.01071495
0.1608163 0.5930542 0.01042066
0.1583579 0.5944968 0.01012821
0.1558862 0.5959169 0.009837701
0.1534015 0.5973143 0.00954924
0.1509038 0.598689 0.00926293
0.1483934 0.6000408 0.008978876
0.1458705 0.6013697 0.008697182
0.1433353 0.6026754 0.008417954
0.140788 0.6039579 0.008141298
0.1382288 0.6052171 0.007867319
0.135658 0.6064528 0.007596123
0.1330756 0.6076651 0.007327819
0.1304819 0.6088536 0.007062512
0.1278772 0.6100185 0.006800311
0.1252617 0.6111595 0.006541322
0.1226354 0.6122765 0.006285655
0.1199988 0.6133695 0.006033417
0.117352 0.6144384 0.005784717
0.1146951 0.615483 0.005539665
0.1120285 0.6165033 0.005298369
0.1093524 0.6174993 0.005060939
0.1066668 0.6184707 0.004827485
0.1039722 0.6194175 0.004598116
0.1012687 0.6203397 0.004372944
0.09855654 0.6212372 0.004152077
0.09583593 0.6221099 0.003935628
0.0931071 0.6229576 0.003723706
0.09037029 0.6237804 0.003516423
0.08762572 0.6245782 0.00331389
0.08487363 0.6253509 0.003116217
0.08211424 0.6260984 0.002923517
0.0793478 0.6268207 0.002735901
0.07657453 0.6275177 0.00255348
0.07379466 0.6281893 0.002376367
0.07100844 0.6288355 0.002204672
0.06821611 0.6294563 0.002038508
0.06541789 0.6300516 0.001877986
0.06261404 0.6306213 0.001723218
0.05980479 0.6311654 0.001574317
0.05699038 0.6316838 0.001431394
0.05417105 0.6321766 0.001294561
0.05134706 0.6326436 0.00116393
0.04851864 0.6330848 0.001039613
0.04568604 0.6335003 0.0009217205
0.04284951 0.6338899 0.0008103654
0.04000929 0.6342536 0.0007056589
0.03716563 0.6345915 0.0006077126
0.03431879 0.6349034 0.0005166376
0.03146901 0.6351894 0.0004325453
0.02861654 0.6354494 0.0003555467
0.02576164 0.6356835 0.0002857527
0.02290456 0.6358915 0.0002232738
0.02004555 0.6360736 0.0001682208
0.01718486 0.6362297 0.0001207037
0.01432277 0.6363597 8.083263e-05
0.01145951 0.6364637 4.871738e-05
0.008595341 0.6365418 2.446744e-05
0.005730529 0.6365938 8.192007e-06
0.00286533 0.6366198 0
0 0.6366198 0

LINES 349 1047
2 0 1
2 1 2
2 2 3
2 3 4
2 4 5
2 5 6
2 6 7
2 7 8
2 8 9
2 9 10
2 10 11
2 11 12
2 12 13
2 13 14
2 14 15
2 15 16
2 16 17
2 17 18
2 18 19
2 19 20
2 20 21
2 21 22
2 22 23
2 23 24
2 24 25
2 25 26
2 26 27
2 27 28
2 28 29
2 29 30
2 30 31
2 31 32
2 32 33
2 33 34
2 34 35
2 35 36
2 36 37
2 37 38
2 38 39
2 39 40
2 40 41
2 41 42
2 42 43
2 43 44
2 44 45
2 45 46
2 46 47
2 47 48
2 48 49
2 49 50
2 50 51
2 51 52
2 52 53
2 53 54
2 54 55
2 55 56
2 56 57
2 57 58
2 58 59
2 59 60
2 60 61
2 61 62
2 62 63
2 63 64
2 64 65
2 65 66
2 66 67
2 67 68
2 68 69
2 69 70
2 70 71
2 71 72
2 72 73
2 73 74
2 74 75
2 75 76
2 76 77
2 77 78
2 78 79
2 79 80
2 80 81
2 81 82
2 82 83
2 83 84
2 84 85
2 85 86
2 86 87
2 87 88
2 88 89
2 89 90
2 90 91
2 91 92
2 92 93
2 93 94
2 94 95
2 95 96
2 96 97
2 97 98
2 98 99
2 99 100
2 100 101
2 101 102
2 102 103
2 103 104
2 104 105
2 105 106
2 106 107
2 107 108
2 108 109
2 109 110
2 110 111
2 111 112
2 112 113
2 113 114
2 114 115
2 115 116
2 116 117
2 117 118
2 118 119
2 119 120
2 120 121
2 121 122
2 122 123
2 123 124
2 124 125
2 125 126
2 126 127
2 127 128
2 128 129
2 129 130
2 130 131
2 131 132
2 132 133
2 133 134
2 134 135
2 135 136
2 136 137
2 137 138
2 138 139
2 139 140
2 140 141
2 141 142
2 142 143
2 143 144
2 144 145
2 145 146
2 146 147
2 147 148
2 148 149
2 149 150
2 150 151
2 151 152
2 152 153
2 153 154
2 154 155
2 155 156
2 156 157
2 157 158
2 158 159
2 159 160
2 160 161
2 161 162
2 162 163
2 163 164
2 164 165
2 165 166
2 166 167
2 167 168
2 168 169
2 169 170
2 170 171
2 171 172
2 172 173
2 173 174
2 174 175
2 175 176
2 176 177
2 177 178
2 178 179
2 179 180
2 180 181
2 181 182
2 182 183
2 183 184
2 184 185
2 185 186
2 186 187
2 187 188
2 188 189
2 189 190
2 190 191
2 191 192
2 192 193
2 193 194
2 194 195
2 195 196
2 196 197
2 197 198
2 198 199
2 199 200
2 200 201
2 201 202
2 202 203
2 203 204
2 204 205
2 205 206
2 206 207
2 207 208
2 208 209
2 209 210
2 210 211
2 211 212
2 212 213
2 213 214
2 214 215
2 215 216
2 216 217
2 217 218
2 218 219
2 219 220
2 220 221
2 221 222
2 222 223
2 223 224
2 224 225
2 225 226
2 226 227
2 227 228
2 228 229
2 229 230
2 230 231
2 231 232
2 232 233
2 233 234
2 234 235
2 235 236
2 236 237
2 237 238
2 238 239
2 239 240
2 240 241
2 241 242
2 242 243
2 243 244
2 244 245
2 245 246
2 246 247
2 247 248
2 248 249
2 249 250
2 250 251
2 251 252
2 252 253
2 253 254
2 254 255
2 255 256
2 256 257
2 257 258
2 258 259
2 259 260
2 260 261
2 261 262
2 262 263
2 263 264
2 264 265
2 265 266
2 266 267
2 267 268
2 268 269
2 269 270
2 270 271
2 271 272
2 272 273
2 273 274
2 274 275
2 275 276
2 276 277
2 277 278
2 278 279
2 279 280
2 280 281
2 281 282
2 282 283
2 283 284
2 284 285
2 285 286
2 286 287
2 287 288
2 288 289
2 289 290
2 290 291
2 291 292
2 292 293
2 293 294
2 294 295
2 295 296
2 296 297
2 297 298
2 298 299
2 299 300
2 300 301
2 301 302
2 302 303
2 303 304
2 304 305
2 305 306
2 306 307
2 307 308
2 308 309
2 309 310
2 310 311
2 311 312
2 312 313
2 313 314
2 314 315
2 315 316
2 316 317
2 317 318
2 318 319
2 319 320
2 320 321
2 321 322
2 322 323
2 323 324
2 324 325
2 325 326
2 326 327
2 327 328
2 328 329
2 329 330
2 330 331
2 331 332
2 332 333
2 333 334
2 334 335
2 335 336
2 336 337
2 337 338
2 338 339
2 339 340
2 340 341
2 341 342
2 342 343
2 343 344
2 344 345
2 345 346
2 346 347
2 347 348
2 348 349


POINT_DATA 350
SCALARS a FLOAT 1
LOOKUP_TABLE default
0.0005894628
0.0005894628
0.0005894628
0.0005894628
0.0005894628
0.0005894628
0.0005894628
0.0005894628
0.0005894628
0.0005894628
0.0005894628
0.0005894628
0.0005894628
0.0005894628
0.0005894628
0.0005894628
0.0005894628
0.0005894628
0.0005894628
0.0005894628
0.0005894628
0.0005894628
0.0005894628
0.0005894628
0.0005894628
0.0005894628
0.0005894628
0.0005894628
0.0005894628
0.0005894628
0.0005894628
0.0005894628
0.0005894628
0.0005894628
0.0005894628
0.0005894628
0.0005894628
0.0005894628
0.0005894628
0.0005894628
0.0005894628
0.0005894628
0.0005894628
0.0005894628
0.0005894628
0.0005894628
0.0005894628
0.0005894628
0.0005894628
0.0005894628
0.0005894628
0.0005894628
0.0005894628
0.0005894628
0.0005894628
0.0005894628
0.0005894628
0.0005894628
0.0005894628
0.0005894628
0.0005894628
0.0005894628
0.0005894628
0.0005894628
0.0005894628
0.0005894628
0.0005894628
0.0005894628
0.0005894628
0.0005894628
0.0005894628
0.0005894628
0.0005894628
0.0005894628
0.0005894628
0.0005894628
0.0005894628
0.0005894628
0.0005894628
0.0005894628
0.0005894628
0.0005894628
0.0005894628
0.0005894628
0.0005894628
0.0005894628
0.0005894628
0.0005894628
0.0005894628
0.0005894628
0.0005894628
0.0005894628
0.0005894628
0.0005894628
0.0005894628
0.0005894628
0.0005894628
0.0005894628
0.0005894628
0.0005894628
0.0005894628
0.0005894628
0.0005894628
0.0005894628
0.0005894628
0.0005894628
0.0005894628
0.0005894628
0.0005894628
0.0005894628
0.0005894628
0.0005894628
0.0005894628
0.0005894628
0.0005894628
0.0005894628
0.0005894628
0.0005894628
0.0005894628
0.0005894628
0.0005894628
0.0005894628
0.0005894628
0.0005894628
0.0005894628
0.0005894628
0.0005894628
0.0005894628
0.0005894628
0.0005894628
0.0005894628
0.0005894628
0.0005894628
0.0005894628
0.0005894628
0.0005894628
0.0005894628
0.0005894628
0.0005894628
0.0005894628
0.0005894628
0.0005894628
0.0005894628
0.0005894628
0.0005894628
0.0005894628
0.0005894628
0.0005894628
0.0005894628
0.0005894628
0.0005894628
0.0005894628
0.0005894628
0.0005894628
0.0005894628
0.0005894628
0.0005894628
0.0005894628
0.0005894628
0.0005894628
0.0005894628
0.0005894628
0.0005894628
0.0005894628
0.0005894628
0.0005894628
0.0005894628
0.0005894628
0.0005894628
0.0005894628
0.0005894628
0.0005894628
0.0005894628
0.0005894628
0.0005894628
0.0005894628
0.0005894628
0.0005894628
0.0005894628
0.0005894628
0.0005894628
0.0005894628
0.0005894628
0.0005894628
0.0005894628
0.0005894628
0.0005894628
0.0005894628
0.0005894628
0.0005894628
0.0005894628
0.0005894628
0.0005894628
0.0005894628
0.0005894628
0.0005894628
0.0005894628
0.0005894628
0.0005894628
0.0005894628
0.0005894628
0.0005894628
0.0005894628
0.0005894628
0.0005894628
0.0005894628
0.0005894628
0.0005894628
0.0005894628
0.0005894628
0.0005894628
0.0005894628
0.0005894628
0.0005894628
0.0005894628
0.0005894628
0.0005894628
0.0005894628
0.0005894628
0.0005894628
0.0005894628
0.0005894628
0.0005894628
0.0005894628
0.0005894628
0.0005894628
0.0005894628
0.0005894628
0.0005894628
0.0005894628
0.0005894628
0.0005894628
0.0005894628
0.0005894628
0.0005894628
0.0005894628
0.0005894628
0.0005894628
0.0005894628
0.0005894628
0.0005894628
0.0005894628
0.0005894628
0.0005894628
0.0005894628
0.0005894628
0.0005894628
0.0005894628
0.0005894628
0.0005894628
0.0005894628
0.0005894628
0.0005894628
0.0005894628
0.0005894628
0.0005894628
0.0005894628
0.0005894628
0.0005894628
0.0005894628
0.0005894628
0.0005894628
0.0005894628
0.0005894628
0.0005894628
0.0005894628
0.0005894628
0.0005894628
0.0005894628
0.0005894628
0.0005894628
0.0005894628
0.0005894628
0.0005894628
0.0005894628
0.0005894628
0.0005894628
0.0005894628
0.0005894628
0.0005894628
0.0005894628
0.0005894628
0.0005894628
0.0005894628
0.0005894628
0.0005894628
0.0005894628
0.0005894628
0.0005894628
0.0005894628
0.0005894628
0.0005894628
0.0005894628
0.0005894628
0.0005894628
0.0005894628
0.0005894628
0.0005894628
0.0005894628
0.0005894628
0.0005894628
0.0005894628
0.0005894628
0.0005894628
0.0005894628
0.0005894628
0.0005894628
0.0005894628
0.0005894628
0.0005894628
0.0005894628
0.0005894628
0.0005894628
0.0005894628
0.0005894628
0.0005894628
0.0005894628
0.0005894628
0.0005894628
0.0005894628
0.0005894628
0.0005894628
0.0005894628
0.0005894628
0.0005894628
0.0005894628
0.0005894628
0.0005894628
0.0005894628
0.0005894628
0.0005894628
0.0005894628
0.0005894628
0.0005894628
0.0005894628
0.0005894628
0.0005894628
0.0005894628
0.0005894628
0.0005894628
0.0005894628
0.0005894628
0.0005894628
0.0005894628
0.0005894628
0.0005894628
0.0005894628
0.0005894628
0.0005894628
0.0005894628


SCALARS b FLOAT 1
LOOKUP_TABLE default
0.04420971
0.04420971
0.04420971
0.04420971
0.04420971
0.04420971
0.04420971
0.04420971
0.04420971
0.04420971
0.04420971
0.04420971
0.04420971
0.04420971
0.04420971
0.04420971
0.04420971
0.04420971
0.04420971
0.04420971
0.04420971
0.04420971
0.04420971
0.04420971
0.04420971
0.04420971
0.04420971
0.04420971
0.04420971
0.04420971
0.04420971
0.04420971
0.04420971
0.04420971
0.04420971
0.04420971
0.04420971
0.04420971
0.04420971
0.04420971
0.04420971
0.04420971
0.04420971
0.04420971
0.04420971
0.04420971
0.04420971
0.04420971
0.04420971
0.04420971
0.04420971
0.04420971
0.04420971
0.04420971
0.04420971
0.04420971
0.04420971
0.04420971
0.04420971
0.04420971
0.04420971
0.04420971
0.04420971
0.04420971
0.04420971
0.04420971
0.04420971
0.04420971
0.04420971
0.04420971
0.04420971
0.04420971
0.04420971
0.04420971
0.04420971
0.04420971
0.04420971
0.04420971
0.04420971
0.04420971
0.04420971
0.04420971
0.04420971
0.04420971
0.04420971
0.04420971
0.04420971
0.04420971
0.04420971
0.04420971
0.04420971
0.04420971
0.04420971
0.04420971
0.04420971
0.04420971
0.04420971
0.04420971
0.04420971
0.04420971
0.04420971
0.04420971
0.04420971
0.04420971
0.04420971
0.04420971
0.04420971
0.04420971
0.04420971
0.04420971
0.04420971
0.04420971
0.04420971
0.04420971
0.04420971
0.04420971
0.04420971
0.04420971
0.04420971
0.04420971
0.04420971
0.04420971
0.04420971
0.04420971
0.04420971
0.04420971
0.04420971
0.04420971
0.04420971
0.04420971
0.04420971
0.04420971
0.04420971
0.04420971
0.04420971
0.04420971
0.04420971
0.04420971
0.04420971
0.04420971
0.04420971
0.04420971
0.04420971
0.04420971
0.04420971
0.04420971
0.04420971
0.04420971
0.04420971
0.04420971
0.04420971
0.04420971
0.04420971
0.04420971
0.04420971
0.04420971
0.04420971
0.04420971
0.04420971
0.04420971
0.04420971
0.04420971
0.04420971
0.04420971
0.04420971
0.04420971
0.04420971
0.04420971
0.04420971
0.04420971
0.04420971
0.04420971
0.04420971
0.04420971
0.04420971
0.04420971
0.04420971
0.04420971
0.04420971
0.04420971
0.04420971
0.04420971
0.04420971
0.04420971
0.04420971
0.04420971
0.04420971
0.04420971
0.04420971
0.04420971
0.04420971
0.04420971
0.04420971
0.04420971
0.04420971
0.04420971
0.04420971
0.04420971
0.04420971
0.04420971
0.04420971
0.04420971
0.04420971
0.04420971
0.04420971
0.04420971
0.04420971
0.04420971
0.04420971
0.04420971
0.04420971
0.04420971
0.04420971
0.04420971
0.04420971
0.04420971
0.04420971
0.04420971
0.04420971
0.04420971
0.04420971
0.04420971
0.04420971
0.04420971
0.04420971
0.04420971
0.04420971
0.04420971
0.04420971
0.04420971
0.04420971
0.04420971
0.04420971
0.04420971
0.04420971
0.04420971
0.04420971
0.04420971
0.04420971
0.04420971
0.04420971
0.04420971
0.04420971
0.04420971
0.04420971
0.04420971
0.04420971
0.04420971
0.04420971
0.04420971
0.04420971
0.04420971
0.04420971
0.04420971
0.04420971
0.04420971
0.04420971
0.04420971
0.04420971
0.04420971
0.04420971
0.04420971
0.04420971
0.04420971
0.04420971
0.04420971
0.04420971
0.04420971
0.04420971
0.04420971
0.04420971
0.04420971
0.04420971
0.04420971
0.04420971
0.04420971
0.04420971
0.04420971
0.04420971
0.04420971
0.04420971
0.04420971
0.04420971
0.04420971
0.04420971
0.04420971
0.04420971
0.04420971
0.04420971
0.04420971
0.04420971
0.04420971
0.04420971
0.04420971
0.04420971
0.04420971
0.04420971
0.04420971
0.04420971
0.04420971
0.04420971
0.04420971
0.04420971
0.04420971
0.04420971
0.04420971
0.04420971
0.04420971
0.04420971
0.04420971
0.04420971
0.04420971
0.04420971
0.04420971
0.04420971
0.04420971
0.04420971
0.04420971
0.04420971
0.04420971
0.04420971
0.04420971
0.04420971
0.04420971
0.04420971
0.04420971
0.04420971
0.04420971
0.04420971
0.04420971
0.04420971
0.04420971
0.04420971
0.04420971
0.04420971
0.04420971
0.04420971
0.04420971
0.04420971
0.04420971
0.04420971
0.04420971
0.04420971
0.04420971
0.04420971
0.04420971
0.04420971
0.04420971
0.04420971
0.04420971


VECTORS d1 FLOAT
0 0.9531696 0.3024364
-0.009513394 0.9542985 0.2987035
-0.01901809 0.955323 0.2949513
-0.02851312 0.9562432 0.2911803
-0.03799753 0.9570593 0.2873913
-0.04747038 0.9577715 0.2835848
-0.05693072 0.9583801 0.2797614
-0.06637762 0.9588854 0.2759217
-0.07581016 0.9592876 0.2720664
-0.08522743 0.959587 0.268196
-0.09462851 0.9597839 0.2643111
-0.1040125 0.9598785 0.2604124
-0.1133785 0.9598713 0.2565004
-0.1227257 0.9597624 0.2525758
-0.1320531 0.9595523 0.2486391
-0.14136 0.9592412 0.244691
-0.1506453 0.9588296 0.2407319
-0.1599084 0.9583177 0.2367626
-0.1691484 0.9577059 0.2327837
-0.1783643 0.9569946 0.2287956
-0.1875555 0.9561843 0.2247991
-0.196721 0.9552751 0.2207946
-0.2058601 0.9542677 0.2167828
-0.214972 0.9531623 0.2127642
-0.2240559 0.9519594 0.2087396
-0.233111 0.9506595 0.2047093
-0.2421365 0.9492628 0.200674
-0.2511317 0.9477699 0.1966343
-0.2600958 0.9461813 0.1925908
-0.269028 0.9444973 0.188544
-0.2779277 0.9427184 0.1844944
-0.2867941 0.9408451 0.1804428
-0.2956265 0.9388779 0.1763896
-0.3044241 0.9368172 0.1723353
-0.3131864 0.9346635 0.1682807
-0.3219124 0.9324174 0.1642261
-0.3306017 0.9300792 0.1601722
-0.3392534 0.9276496 0.1561196
-0.347867 0.925129 0.1520687
-0.3564417 0.9225179 0.1480202
-0.364977 0.9198169 0.1439745
-0.3734721 0.9170265 0.1399322
-0.3819265 0.9141472 0.1358939
-0.3903394 0.9111795 0.1318601
-0.3987104 0.908124 0.1278314
-0.4070387 0.9049812 0.1238082
-0.4153237 0.9017518 0.1197911
-0.423565 0.8984362 0.1157807
-0.4317618 0.8950349 0.1117774
-0.4399137 0.8915487 0.1077818
-0.4480199 0.887978 0.1037943
-0.4560801 0.8843234 0.09981564
-0.4640935 0.8805854 0.09584618
-0.4720597 0.8767648 0.09188645
-0.4799782 0.872862 0.08793698
-0.4878483 0.8688776 0.08399827
-0.4956696 0.8648123 0.08007082
-0.5034416 0.8606666 0.07615514
-0.5111637 0.8564411 0.07225171
-0.5188354 0.8521365 0.06836103
-0.5264563 0.8477533 0.0644836
-0.5340259 0.8432921 0.0606199
-0.5415436 0.8387536 0.05677041
-0.5490091 0.8341384 0.05293563
-0.5564218 0.8294471 0.04911603
-0.5637812 0.8246803 0.04531208
-0.5710871 0.8198386 0.04152426
-0.5783388 0.8149227 0.03775304
-0.585536 0.8099331 0.03399888
-0.5926782 0.8048706 0.03026226
-0.599765 0.7997358 0.02654362
-0.606796 0.7945293 0.02284343
-0.6137709 0.7892516 0.01916214
-0.6206891 0.7839036 0.01550021
-0.6275502 0.7784858 0.01185808
-0.634354 0.7729988 0.008236192
-0.6411 0.7674433 0.004634994
-0.6477879 0.76182 0.001054924
-0.6544172 0.7561295 -0.002503584
-0.6609877 0.7503725 -0.006040097
-0.6674989 0.7445495 -0.009554186
-0.6739505 0.7386613 -0.01304543
-0.6803421 0.7327086 -0.01651339
-0.6866735 0.7266919 -0.01995767
-0.6929443 0.720612 -0.02337784
-0.6991542 0.7144694 -0.02677348
-0.7053028 0.708265 -0.0301442
-0.7113899 0.7019992 -0.03348958
-0.717415 0.6956729 -0.03680923
-0.723378 0.6892866 -0.04010273
-0.7292785 0.682841 -0.0433697
-0.7351163 0.6763369 -0.04660975
-0.740891 0.6697748 -0.04982247
-0.7466023 0.6631555 -0.0530075
-0.7522501 0.6564795 -0.05616444
-0.757834 0.6497477 -0.05929291
-0.7633537 0.6429606 -0.06239255
-0.768809 0.6361189 -0.06546297
-0.7741997 0.6292234 -0.06850381
-0.7795255 0.6222746 -0.0715147
-0.7847861 0.6152733 -0.07449529
-0.7899813 0.6082202 -0.07744521
-0.7951109 0.6011159 -0.0803641
-0.8001746 0.5939611 -0.08325163
-0.8051722 0.5867565 -0.08610743
-0.8101036 0.5795027 -0.08893117
-0.8149684 0.5722006 -0.09172251
-0.8197665 0.5648506 -0.09448111
-0.8244976 0.5574536 -0.09720663
-0.8291616 0.5500102 -0.09989875
-0.8337583 0.5425211 -0.1025571
-0.8382874 0.534987 -0.1051815
-0.8427488 0.5274085 -0.1077715
-0.8471423 0.5197864 -0.1103268
-0.8514677 0.5121214 -0.1128471
-0.8557248 0.504414 -0.1153321
-0.8599135 0.4966652 -0.1177815
-0.8640336 0.4888754 -0.120195
-0.8680849 0.4810454 -0.1225723
-0.8720672 0.473176 -0.1249131
-0.8759804 0.4652677 -0.1272172
-0.8798244 0.4573213 -0.1294842
-0.883599 0.4493376 -0.1317139
-0.887304 0.441317 -0.133906
-0.8909394 0.4332605 -0.1360602
-0.8945049 0.4251686 -0.1381763
-0.8980004 0.4170421 -0.140254
-0.9014258 0.4088816 -0.142293
-0.904781 0.4006879 -0.1442931
-0.9080658 0.3924617 -0.1462541
-0.9112802 0.3842036 -0.1481757
-0.9144239 0.3759143 -0.1500576
-0.917497 0.3675946 -0.1518997
-0.9204992 0.3592452 -0.1537017
-0.9234304 0.3508667 -0.1554633
-0.9262906 0.3424598 -0.1571844
-0.9290797 0.3340253 -0.1588648
-0.9317975 0.3255639 -0.1605042
-0.934444 0.3170762 -0.1621024
-0.937019 0.3085629 -0.1636592
-0.9395225 0.3000249 -0.1651744
-0.9419544 0.2914626 -0.1666479
-0.9443145 0.282877 -0.1680794
-0.9466029 0.2742686 -0.1694688
-0.9488194 0.2656383 -0.1708159
-0.9509639 0.2569866 -0.1721205
-0.9530365 0.2483143 -0.1733825
-0.9550369 0.239622 -0.1746017
-0.9569652 0.2309106 -0.1757779
-0.9588213 0.2221807 -0.1769109
-0.960605 0.2134331 -0.1780008
-0.9623165 0.2046683 -0.1790472
-0.9639555 0.1958872 -0.1800501
-0.965522 0.1870904 -0.1810093
-0.9670161 0.1782787 -0.1819248
-0.9684375 0.1694527 -0.1827963
-0.9697864 0.1606133 -0.1836239
-0.9710626 0.151761 -0.1844073
-0.9722661 0.1428965 -0.1851465
-0.9733969 0.1340207 -0.1858414
-0.9744548 0.1251342 -0.1864918
-0.97544 0.1162378 -0.1870978
-0.9763523 0.1073321 -0.1876592
-0.9771918 0.09841777 -0.188176
-0.9779583 0.08949565 -0.188648
-0.9786519 0.0805664 -0.1890753
-0.9792726 0.07163074 -0.1894578
-0.9798203 0.06268937 -0.1897953
-0.980295 0.05374302 -0.190088
-0.9806967 0.04479238 -0.1903357
-0.9810254 0.03583819 -0.1905384
-0.981281 0.02688114 -0.1906961
-0.9814636 0.01792195 -0.1908087
-0.9815732 0.00896133 -0.1908763
-0.9816097 1.092483e-09 -0.1908989
-0.9815732 -0.008961328 -0.1908763
-0.9814636 -0.01792194 -0.1908087
-0.981281 -0.02688113 -0.1906961
-0.9810254 -0.03583818 -0.1905384
-0.9806967 -0.04479238 -0.1903357
-0.980295 -0.05374302 -0.190088
-0.9798203 -0.06268937 -0.1897953
-0.9792726 -0.07163074 -0.1894578
-0.9786519 -0.0805664 -0.1890753
-0.9779583 -0.08949565 -0.188648
-0.9771918 -0.09841777 -0.188176
-0.9763523 -0.1073321 -0.1876592
-0.97544 -0.1162378 -0.1870978
-0.9744548 -0.1251342 -0.1864918
-0.9733969 -0.1340207 -0.1858414
-0.9722661 -0.1428965 -0.1851465
-0.9710626 -0.151761 -0.1844073
-0.9697864 -0.1606133 -0.1836239
-0.9684375 -0.1694527 -0.1827963
-0.9670161 -0.1782787 -0.1819248
-0.965522 -0.1870904 -0.1810093
-0.9639555 -0.1958872 -0.1800501
-0.9623165 -0.2046683 -0.1790472
-0.960605 -0.2134331 -0.1780008
-0.9588213 -0.2221807 -0.1769109
-0.9569652 -0.2309106 -0.1757779
-0.9550369 -0.239622 -0.1746017
-0.9530365 -0.2483143 -0.1733825
-0.9509639 -0.2569866 -0.1721205
-0.9488194 -0.2656383 -0.1708159
-0.9466029 -0.2742686 -0.1694688
-0.9443145 -0.282877 -0.1680794
-0.9419544 -0.2914626 -0.1666479
-0.9395225 -0.3000249 -0.1651744
-0.937019 -0.3085629 -0.1636592
-0.934444 -0.3170762 -0.1621024
-0.9317975 -0.3255639 -0.1605042
-0.9290797 -0.3340253 -0.1588648
-0.9262906 -0.3424598 -0.1571844
-0.9234304 -0.3508667 -0.1554633
-0.9204992 -0.3592452 -0.1537017
-0.917497 -0.3675946 -0.1518997
-0.9144239 -0.3759143 -0.1500576
-0.9112802 -0.3842036 -0.1481757
-0.9080658 -0.3924617 -0.1462541
-0.904781 -0.4006879 -0.1442931
-0.9014258 -0.4088816 -0.142293