# vtk DataFile Version 2.0
Written badly by Kevin Korner
ASCII
DATASET POLYDATA
POINTS 350 FLOAT
0 0 0
0.00286533 0 0
0.005730518 2.587092e-05 1.188894e-05
0.008595282 7.763625e-05 3.550914e-05
0.01145934 0.0001553159 7.070237e-05
0.01432242 0.0002589264 0.0001173098
0.01718423 0.0003884806 0.000175172
0.02004451 0.000543988 0.0002441293
0.02290297 0.0007254547 0.0003240213
0.02575934 0.0009328833 0.0004146873
0.02861335 0.001166273 0.0005159661
0.03146473 0.00142562 0.0006276964
0.03431321 0.001710917 0.0007497162
0.03715852 0.002022153 0.0008818635
0.04000039 0.002359315 0.001023976
0.04283857 0.002722386 0.001175891
0.04567277 0.003111345 0.001337446
0.04850275 0.003526169 0.001508477
0.05132824 0.003966832 0.001688822
0.05414899 0.004433305 0.001878318
0.05696473 0.004925554 0.002076801
0.05977522 0.005443546 0.002284107
0.06258019 0.00598724 0.002500073
0.0653794 0.006556597 0.002724537
0.06817259 0.007151572 0.002957334
0.07095952 0.007772117 0.003198301
0.07373993 0.008418184 0.003447275
0.0765136 0.009089719 0.003704092
0.07928026 0.009786668 0.00396859
0.08203968 0.01050897 0.004240606
0.08479162 0.01125657 0.004519976
0.08753583 0.0120294 0.00480654
0.09027209 0.01282739 0.005100133
0.09300016 0.01365049 0.005400594
0.0957198 0.0144986 0.005707761
0.09843079 0.01537167 0.006021473
0.1011329 0.01626962 0.006341569
0.1038259 0.01719236 0.006667886
0.1065095 0.01813982 0.007000266
0.1091836 0.01911191 0.007338548
0.1118479 0.02010855 0.007682572
0.1145022 0.02112965 0.008032178
0.1171463 0.02217512 0.008387208
0.1197799 0.02324486 0.008747503
0.1224028 0.02433879 0.009112905
0.1250149 0.02545681 0.009483257
0.1276159 0.02659881 0.009858401
0.1302056 0.02776469 0.01023818
0.1327838 0.02895436 0.01062244
0.1353503 0.0301677 0.01101102
0.1379049 0.03140462 0.01140378
0.1404474 0.03266499 0.01180054
0.1429775 0.03394871 0.01220117
0.1454952 0.03525566 0.01260551
0.1480001 0.03658574 0.0130134
0.1504921 0.03793882 0.0134247
0.152971 0.03931478 0.01383925
0.1554366 0.0407135 0.0142569
0.1578888 0.04213486 0.0146775
0.1603272 0.04357874 0.01510091
0.1627518 0.04504501 0.01552697
0.1651624 0.04653353 0.01595554
0.1675587 0.04804419 0.01638646
0.1699406 0.04957685 0.0168196
0.1723079 0.05113137 0.01725481
0.1746604 0.05270763 0.01769194
0.176998 0.05430548 0.01813084
0.1793205 0.05592478 0.01857139
0.1816277 0.0575654 0.01901342
0.1839194 0.0592272 0.01945681
0.1861955 0.06091003 0.0199014
0.1884557 0.06261375 0.02034707
0.1907 0.06433821 0.02079367
0.1929282 0.06608327 0.02124106
0.1951401 0.06784877 0.02168911
0.1973355 0.06963457 0.02213768
0.1995143 0.07144052 0.02258663
0.2016763 0.07326645 0.02303582
0.2038214 0.07511222 0.02348514
0.2059494 0.07697768 0.02393443
0.2080601 0.07886265 0.02438357
0.2101535 0.080767 0.02483243
0.2122293 0.08269054 0.02528088
0.2142874 0.08463313 0.02572879
0.2163276 0.08659461 0.02617603
0.2183499 0.0885748 0.02662247
0.2203541 0.09057354 0.02706798
0.22234 0.09259067 0.02751245
0.2243075 0.09462601 0.02795574
0.2262564 0.09667941 0.02839774
0.2281866 0.09875068 0.02883832
0.230098 0.1008397 0.02927735
0.2319905 0.1029462 0.02971472
0.2338639 0.1050701 0.03015032
0.235718 0.1072111 0.03058401
0.2375528 0.1093692 0.03101568
0.2393681 0.1115441 0.03144523
0.2411638 0.1137357 0.03187252
0.2429398 0.1159438 0.03229745
0.2446959 0.1181681 0.03271991
0.246432 0.1204086 0.03313977
0.248148 0.122665 0.03355694
0.2498439 0.1249371 0.0339713
0.2515193 0.1272248 0.03438275
0.2531744 0.1295279 0.03479116
0.2548088 0.1318462 0.03519645
0.2564226 0.1341795 0.0355985
0.2580156 0.1365276 0.03599721
0.2595876 0.1388903 0.03639247
0.2611387 0.1412674 0.03678419
0.2626687 0.1436588 0.03717226
0.2641774 0.1460643 0.03755659
0.2656648 0.1484836 0.03793707
0.2671307 0.1509165 0.03831361
0.2685751 0.153363 0.03868611
0.2699979 0.1558227 0.03905448
0.271399 0.1582954 0.03941862
0.2727782 0.1607811 0.03977845
0.2741355 0.1632794 0.04013386
0.2754708 0.1657901 0.04048478
0.276784 0.1683132 0.04083111
0.2780749 0.1708483 0.04117277
0.2793436 0.1733953 0.04150967
0.2805899 0.1759539 0.04184172
0.2818137 0.178524 0.04216885
0.283015 0.1811053 0.04249097
0.2841936 0.1836977 0.042808
0.2853495 0.1863009 0.04311985
0.2864826 0.1889148 0.04342647
0.2875929 0.191539 0.04372775
0.2886801 0.1941735 0.04402364
0.2897444 0.196818 0.04431406
0.2907855 0.1994722 0.04459893
0.2918035 0.202136 0.04487819
0.2927982 0.2048092 0.04515177
0.2937696 0.2074915 0.04541959
0.2947176 0.2101827 0.04568159
0.2956421 0.2128827 0.04593771
0.2965431 0.2155911 0.04618788
0.2974206 0.2183079 0.04643205
0.2982744 0.2210326 0.04667014
0.2991044 0.2237653 0.0469021
0.2999107 0.2265055 0.04712788
0.3006932 0.2292532 0.04734741
0.3014519 0.232008 0.04756065
0.3021865 0.2347698 0.04776754
0.3028972 0.2375384 0.04796803
0.3035839 0.2403134 0.04816206
0.3042465 0.2430948 0.0483496
0.3048849 0.2458822 0.0485306
0.3054992 0.2486755 0.048705
0.3060892 0.2514744 0.04887277
0.306655 0.2542787 0.04903387
0.3071965 0.2570881 0.04918825
0.3077136 0.2599025 0.04933587
0.3082063 0.2627217 0.04947671
0.3086747 0.2655453 0.04961073
0.3091185 0.2683732 0.04973788
0.3095379 0.2712051 0.04985815
0.3099328 0.2740408 0.0499715
0.3103032 0.2768801 0.0500779
0.310649 0.2797228 0.05017733
0.3109701 0.2825685 0.05026975
0.3112667 0.2854172 0.05035516
0.3115386 0.2882685 0.05043353
0.3117859 0.2911223 0.05050483
0.3120085 0.2939782 0.05056905
0.3122064 0.2968361 0.05062618
0.3123796 0.2996958 0.0506762
0.3125281 0.3025569 0.05071909
0.3126518 0.3054194 0.05075485
0.3127508 0.3082829 0.05078348
0.3128251 0.3111471 0.05080495
0.3128746 0.314012 0.05081926
0.3128994 0.3168772 0.05082642
0.3128994 0.3197426 0.05082642
0.3128746 0.3226078 0.05081926
0.3128251 0.3254726 0.05080495
0.3127508 0.3283369 0.05078348
0.3126518 0.3312004 0.05075485
0.3125281 0.3340628 0.05071909
0.3123796 0.336924 0.0506762
0.3122064 0.3397836 0.05062618
0.3120085 0.3426416 0.05056905
0.3117859 0.3454975 0.05050483
0.3115386 0.3483513 0.05043353
0.3112667 0.3512026 0.05035516
0.3109701 0.3540512 0.05026975
0.310649 0.356897 0.05017733
0.3103032 0.3597397 0.0500779
0.3099328 0.362579 0.0499715
0.3095379 0.3654147 0.04985815
0.3091185 0.3682466 0.04973788
0.3086747 0.3710745 0.04961073
0.3082063 0.3738981 0.04947671
0.3077136 0.3767172 0.04933587
0.3071965 0.3795316 0.04918825
0.306655 0.3823411 0.04903387
0.3060892 0.3851454 0.04887277
0.3054992 0.3879443 0.048705
0.3048849 0.3907376 0.0485306
0.3042465 0.393525 0.0483496
0.3035839 0.3963063 0.04816206
0.3028972 0.3990814 0.04796803
0.3021865 0.4018499 0.04776754
0.3014519 0.4046117 0.04756065
0.3006932 0.4073666 0.04734741
0.2999107 0.4101142 0.04712788
0.2991044 0.4128545 0.0469021
0.2982744 0.4155871 0.04667014
0.2974206 0.4183119 0.04643205
0.2965431 0.4210286 0.04618788
0.2956421 0.4237371 0.04593771
0.2947176 0.426437 0.04568159
0.2937696 0.4291283 0.04541959
0.2927982 0.4318106 0.04515177
0.2918035 0.4344838 0.04487819
0.2907855 0.4371476 0.04459893
0.2897444 0.4398018 0.04431406
0.2886801 0.4424463 0.04402364
0.2875929 0.4450807 0.04372775
0.2864826 0.447705 0.04342647
0.2853495 0.4503188 0.04311985
0.2841936 0.452922 0.042808
0.283015 0.4555144 0.04249097
0.2818137 0.4580958 0.04216885
0.2805899 0.4606659 0.04184172
0.2793436 0.4632245 0.04150967
0.2780749 0.4657715 0.04117277
0.276784 0.4683066 0.04083111
0.2754708 0.4708296 0.04048478
0.2741355 0.4733404 0.04013386
0.2727782 0.4758387 0.03977845
0.271399 0.4783243 0.03941862
0.2699979 0.4807971 0.03905448
0.2685751 0.4832568 0.03868611
0.2671307 0.4857032 0.03831361
0.2656648 0.4881362 0.03793707
0.2641774 0.4905555 0.03755659
0.2626687 0.4929609 0.03717226
0.2611387 0.4953523 0.03678419
0.2595876 0.4977295 0.03639247
0.2580156 0.5000922 0.03599721
0.2564226 0.5024403 0.0355985
0.2548088 0.5047736 0.03519645
0.2531744 0.5070919 0.03479116
0.2515193 0.509395 0.03438275
0.2498439 0.5116827 0.0339713
0.248148 0.5139548 0.03355694
0.246432 0.5162112 0.03313977
0.2446959 0.5184517 0.03271991
0.2429398 0.520676 0.03229745
0.2411638 0.5228841 0.03187252
0.2393681 0.5250756 0.03144523
0.2375528 0.5272505 0.03101568
0.235718 0.5294086 0.03058401
0.2338639 0.5315497 0.03015032
0.2319905 0.5336736 0.02971472
0.230098 0.5357801 0.02927735
0.2281866 0.5378691 0.02883832
0.2262564 0.5399404 0.02839774
0.2243075 0.5419938 0.02795574
0.22234 0.5440291 0.02751245
0.2203541 0.5460462 0.02706798
0.2183499 0.548045 0.02662247
0.2163276 0.5500252 0.02617603
0.2142874 0.5519866 0.02572879
0.2122293 0.5539292 0.02528088
0.2101535 0.5558528 0.02483243
0.2080601 0.5577571 0.02438357
0.2059494 0.5596421 0.02393443
0.2038214 0.5615075 0.02348514
0.2016763 0.5633533 0.02303582
0.1995143 0.5651793 0.02258663
0.1973355 0.5669852 0.02213768
0.1951401 0.568771 0.02168911
0.1929282 0.5705365 0.02124106
0.1907 0.5722816 0.02079367
0.1884557 0.574006 0.02034707
0.1861955 0.5757097 0.0199014
0.1839194 0.5773926 0.01945681
0.1816277 0.5790544 0.01901342
0.1793205 0.580695 0.01857139
0.176998 0.5823143 0.01813084
0.1746604 0.5839121 0.01769194
0.1723079 0.5854884 0.01725481
0.1699406 0.5870429 0.0168196
0.1675587 0.5885756 0.01638646
0.1651624 0.5900862 0.01595554
0.1627518 0.5915748 0.01552697
0.1603272 0.593041 0.01510091
0.1578888 0.5944849 0.0146775
0.1554366 0.5959063 0.0142569
0.152971 0.597305 0.01383925
0.1504921 0.598681 0.0134247
0.1480001 0.600034 0.0130134
0.1454952 0.6013641 0.01260551
0.1429775 0.6026711 0.01220117
0.1404474 0.6039548 0.01180054
0.1379049 0.6052152 0.01140378
0.1353503 0.6064521 0.01101102
0.1327838 0.6076654 0.01062244
0.1302056 0.6088551 0.01023818
0.1276159 0.610021 0.009858401
0.1250149 0.611163 0.009483257
0.1224028 0.612281 0.009112905
0.1197799 0.6133749 0.008747503
0.1171463 0.6144447 0.008387208
0.1145022 0.6154901 0.008032178
0.1118479 0.6165112 0.007682572
0.1091836 0.6175079 0.007338548
0.1065095 0.61848 0.007000266
0.1038259 0.6194274 0.006667886
0.1011329 0.6203502 0.006341569
0.09843079 0.6212481 0.006021473
0.0957198 0.6221212 0.005707761
0.09300016 0.6229693 0.005400594
0.09027209 0.6237924 0.005100133
0.08753583 0.6245904 0.00480654
0.08479162 0.6253632 0.004519976
0.08203968 0.6261108 0.004240606
0.07928026 0.6268331 0.00396859
0.0765136 0.6275301 0.003704092
0.07373993 0.6282016 0.003447275
0.07095952 0.6288477 0.003198301
0.06817259 0.6294682 0.002957334
0.0653794 0.6300632 0.002724537
0.06258019 0.6306325 0.002500073
0.05977522 0.6311762 0.002284107
0.05696473 0.6316942 0.002076801
0.05414899 0.6321865 0.001878318
0.05132824 0.6326529 0.001688822
0.04850275 0.6330936 0.001508477
0.04567277 0.6335084 0.001337446
0.04283857 0.6338974 0.001175891
0.04000039 0.6342605 0.001023976
0.03715852 0.6345976 0.0008818636
0.03431321 0.6349089 0.0007497162
0.03146473 0.6351942 0.0006276964
0.02861335 0.6354535 0.0005159661
0.02575934 0.6356869 0.0004146873
0.02290297 0.6358943 0.0003240213
0.02004451 0.6360758 0.0002441293
0.01718423 0.6362313 0.000175172
0.01432242 0.6363608 0.0001173098
0.01145934 0.6364645 7.070237e-05
0.008595282 0.6365421 3.550914e-05
0.005730518 0.6365939 1.188894e-05
0.00286533 0.6366198 0
0 0.6366198 0

LINES 349 1047
2 0 1
2 1 2
2 2 3
2 3 4
2 4 5
2 5 6
2 6 7
2 7 8
2 8 9
2 9 10
2 10 11
2 11 12
2 12 13
2 13 14
2 14 15
2 15 16
2 16 17
2 17 18
2 18 19
2 19 20
2 20 21
2 21 22
2 22 23
2 23 24
2 24 25
2 25 26
2 26 27
2 27 28
2 28 29
2 29 30
2 30 31
2 31 32
2 32 33
2 33 34
2 34 35
2 35 36
2 36 37
2 37 38
2 38 39
2 39 40
2 40 41
2 41 42
2 42 43
2 43 44
2 44 45
2 45 46
2 46 47
2 47 48
2 48 49
2 49 50
2 50 51
2 51 52
2 52 53
2 53 54
2 54 55
2 55 56
2 56 57
2 57 58
2 58 59
2 59 60
2 60 61
2 61 62
2 62 63
2 63 64
2 64 65
2 65 66
2 66 67
2 67 68
2 68 69
2 69 70
2 70 71
2 71 72
2 72 73
2 73 74
2 74 75
2 75 76
2 76 77
2 77 78
2 78 79
2 79 80
2 80 81
2 81 82
2 82 83
2 83 84
2 84 85
2 85 86
2 86 87
2 87 88
2 88 89
2 89 90
2 90 91
2 91 92
2 92 93
2 93 94
2 94 95
2 95 96
2 96 97
2 97 98
2 98 99
2 99 100
2 100 101
2 101 102
2 102 103
2 103 104
2 104 105
2 105 106
2 106 107
2 107 108
2 108 109
2 109 110
2 110 111
2 111 112
2 112 113
2 113 114
2 114 115
2 115 116
2 116 117
2 117 118
2 118 119
2 119 120
2 120 121
2 121 122
2 122 123
2 123 124
2 124 125
2 125 126
2 126 127
2 127 128
2 128 129
2 129 130
2 130 131
2 131 132
2 132 133
2 133 134
2 134 135
2 135 136
2 136 137
2 137 138
2 138 139
2 139 140
2 140 141
2 141 142
2 142 143
2 143 144
2 144 145
2 145 146
2 146 147
2 147 148
2 148 149
2 149 150
2 150 151
2 151 152
2 152 153
2 153 154
2 154 155
2 155 156
2 156 157
2 157 158
2 158 159
2 159 160
2 160 161
2 161 162
2 162 163
2 163 164
2 164 165
2 165 166
2 166 167
2 167 168
2 168 169
2 169 170
2 170 171
2 171 172
2 172 173
2 173 174
2 174 175
2 175 176
2 176 177
2 177 178
2 178 179
2 179 180
2 180 181
2 181 182
2 182 183
2 183 184
2 184 185
2 185 186
2 186 187
2 187 188
2 188 189
2 189 190
2 190 191
2 191 192
2 192 193
2 193 194
2 194 195
2 195 196
2 196 197
2 197 198
2 198 199
2 199 200
2 200 201
2 201 202
2 202 203
2 203 204
2 204 205
2 205 206
2 206 207
2 207 208
2 208 209
2 209 210
2 210 211
2 211 212
2 212 213
2 213 214
2 214 215
2 215 216
2 216 217
2 217 218
2 218 219
2 219 220
2 220 221
2 221 222
2 222 223
2 223 224
2 224 225
2 225 226
2 226 227
2 227 228
2 228 229
2 229 230
2 230 231
2 231 232
2 232 233
2 233 234
2 234 235
2 235 236
2 236 237
2 237 238
2 238 239
2 239 240
2 240 241
2 241 242
2 242 243
2 243 244
2 244 245
2 245 246
2 246 247
2 247 248
2 248 249
2 249 250
2 250 251
2 251 252
2 252 253
2 253 254
2 254 255
2 255 256
2 256 257
2 257 258
2 258 259
2 259 260
2 260 261
2 261 262
2 262 263
2 263 264
2 264 265
2 265 266
2 266 267
2 267 268
2 268 269
2 269 270
2 270 271
2 271 272
2 272 273
2 273 274
2 274 275
2 275 276
2 276 277
2 277 278
2 278 279
2 279 280
2 280 281
2 281 282
2 282 283
2 283 284
2 284 285
2 285 286
2 286 287
2 287 288
2 288 289
2 289 290
2 290 291
2 291 292
2 292 293
2 293 294
2 294 295
2 295 296
2 296 297
2 297 298
2 298 299
2 299 300
2 300 301
2 301 302
2 302 303
2 303 304
2 304 305
2 305 306
2 306 307
2 307 308
2 308 309
2 309 310
2 310 311
2 311 312
2 312 313
2 313 314
2 314 315
2 315 316
2 316 317
2 317 318
2 318 319
2 319 320
2 320 321
2 321 322
2 322 323
2 323 324
2 324 325
2 325 326
2 326 327
2 327 328
2 328 329
2 329 330
2 330 331
2 331 332
2 332 333
2 333 334
2 334 335
2 335 336
2 336 337
2 337 338
2 338 339
2 339 340
2 340 341
2 341 342
2 342 343
2 343 344
2 344 345
2 345 346
2 346 347
2 347 348
2 348 349


POINT_DATA 350
SCALARS a FLOAT 1
LOOKUP_TABLE default
0.0005894628
0.0005894628
0.0005894628
0.0005894628
0.0005894628
0.0005894628
0.0005894628
0.0005894628
0.0005894628
0.0005894628
0.0005894628
0.0005894628
0.0005894628
0.0005894628
0.0005894628
0.0005894628
0.0005894628
0.0005894628
0.0005894628
0.0005894628
0.0005894628
0.0005894628
0.0005894628
0.0005894628
0.0005894628
0.0005894628
0.0005894628
0.0005894628
0.0005894628
0.0005894628
0.0005894628
0.0005894628
0.0005894628
0.0005894628
0.0005894628
0.0005894628
0.0005894628
0.0005894628
0.0005894628
0.0005894628
0.0005894628
0.0005894628
0.0005894628
0.0005894628
0.0005894628
0.0005894628
0.0005894628
0.0005894628
0.0005894628
0.0005894628
0.0005894628
0.0005894628
0.0005894628
0.0005894628
0.0005894628
0.0005894628
0.0005894628
0.0005894628
0.0005894628
0.0005894628
0.0005894628
0.0005894628
0.0005894628
0.0005894628
0.0005894628
0.0005894628
0.0005894628
0.0005894628
0.0005894628
0.0005894628
0.0005894628
0.0005894628
0.0005894628
0.0005894628
0.0005894628
0.0005894628
0.0005894628
0.0005894628
0.0005894628
0.0005894628
0.0005894628
0.0005894628
0.0005894628
0.0005894628
0.0005894628
0.0005894628
0.0005894628
0.0005894628
0.0005894628
0.0005894628
0.0005894628
0.0005894628
0.0005894628
0.0005894628
0.0005894628
0.0005894628
0.0005894628
0.0005894628
0.0005894628
0.0005894628
0.0005894628
0.0005894628
0.0005894628
0.0005894628
0.0005894628
0.0005894628
0.0005894628
0.0005894628
0.0005894628
0.0005894628
0.0005894628
0.0005894628
0.0005894628
0.0005894628
0.0005894628
0.0005894628
0.0005894628
0.0005894628
0.0005894628
0.0005894628
0.0005894628
0.0005894628
0.0005894628
0.0005894628
0.0005894628
0.0005894628
0.0005894628
0.0005894628
0.0005894628
0.0005894628
0.0005894628
0.0005894628
0.0005894628
0.0005894628
0.0005894628
0.0005894628
0.0005894628
0.0005894628
0.0005894628
0.0005894628
0.0005894628
0.0005894628
0.0005894628
0.0005894628
0.0005894628
0.0005894628
0.0005894628
0.0005894628
0.0005894628
0.0005894628
0.0005894628
0.0005894628
0.0005894628
0.0005894628
0.0005894628
0.0005894628
0.0005894628
0.0005894628
0.0005894628
0.0005894628
0.0005894628
0.0005894628
0.0005894628
0.0005894628
0.0005894628
0.0005894628
0.0005894628
0.0005894628
0.0005894628
0.0005894628
0.0005894628
0.0005894628
0.0005894628
0.0005894628
0.0005894628
0.0005894628
0.0005894628
0.0005894628
0.0005894628
0.0005894628
0.0005894628
0.0005894628
0.0005894628
0.0005894628
0.0005894628
0.0005894628
0.0005894628
0.0005894628
0.0005894628
0.0005894628
0.0005894628
0.0005894628
0.0005894628
0.0005894628
0.0005894628
0.0005894628
0.0005894628
0.0005894628
0.0005894628
0.0005894628
0.0005894628
0.0005894628
0.0005894628
0.0005894628
0.0005894628
0.0005894628
0.0005894628
0.0005894628
0.0005894628
0.0005894628
0.0005894628
0.0005894628
0.0005894628
0.0005894628
0.0005894628
0.0005894628
0.0005894628
0.0005894628
0.0005894628
0.0005894628
0.0005894628
0.0005894628
0.0005894628
0.0005894628
0.0005894628
0.0005894628
0.0005894628
0.0005894628
0.0005894628
0.0005894628
0.0005894628
0.0005894628
0.0005894628
0.0005894628
0.0005894628
0.0005894628
0.0005894628
0.0005894628
0.0005894628
0.0005894628
0.0005894628
0.0005894628
0.0005894628
0.0005894628
0.0005894628
0.0005894628
0.0005894628
0.0005894628
0.0005894628
0.0005894628
0.0005894628
0.0005894628
0.0005894628
0.0005894628
0.0005894628
0.0005894628
0.0005894628
0.0005894628
0.0005894628
0.0005894628
0.0005894628
0.0005894628
0.0005894628
0.0005894628
0.0005894628
0.0005894628
0.0005894628
0.0005894628
0.0005894628
0.0005894628
0.0005894628
0.0005894628
0.0005894628
0.0005894628
0.0005894628
0.0005894628
0.0005894628
0.0005894628
0.0005894628
0.0005894628
0.0005894628
0.0005894628
0.0005894628
0.0005894628
0.0005894628
0.0005894628
0.0005894628
0.0005894628
0.0005894628
0.0005894628
0.0005894628
0.0005894628
0.0005894628
0.0005894628
0.0005894628
0.0005894628
0.0005894628
0.0005894628
0.0005894628
0.0005894628
0.0005894628
0.0005894628
0.0005894628
0.0005894628
0.0005894628
0.0005894628
0.0005894628
0.0005894628
0.0005894628
0.0005894628
0.0005894628
0.0005894628
0.0005894628
0.0005894628
0.0005894628
0.0005894628
0.0005894628
0.0005894628
0.0005894628
0.0005894628
0.0005894628
0.0005894628
0.0005894628
0.0005894628
0.0005894628
0.0005894628
0.0005894628
0.0005894628
0.0005894628
0.0005894628
0.0005894628
0.0005894628
0.0005894628
0.0005894628
0.0005894628
0.0005894628
0.0005894628
0.0005894628
0.0005894628
0.0005894628
0.0005894628
0.0005894628
0.0005894628
0.0005894628
0.0005894628
0.0005894628
0.0005894628
0.0005894628
0.0005894628
0.0005894628


SCALARS b FLOAT 1
LOOKUP_TABLE default
0.04420971
0.04420971
0.04420971
0.04420971
0.04420971
0.04420971
0.04420971
0.04420971
0.04420971
0.04420971
0.04420971
0.04420971
0.04420971
0.04420971
0.04420971
0.04420971
0.04420971
0.04420971
0.04420971
0.04420971
0.04420971
0.04420971
0.04420971
0.04420971
0.04420971
0.04420971
0.04420971
0.04420971
0.04420971
0.04420971
0.04420971
0.04420971
0.04420971
0.04420971
0.04420971
0.04420971
0.04420971
0.04420971
0.04420971
0.04420971
0.04420971
0.04420971
0.04420971
0.04420971
0.04420971
0.04420971
0.04420971
0.04420971
0.04420971
0.04420971
0.04420971
0.04420971
0.04420971
0.04420971
0.04420971
0.04420971
0.04420971
0.04420971
0.04420971
0.04420971
0.04420971
0.04420971
0.04420971
0.04420971
0.04420971
0.04420971
0.04420971
0.04420971
0.04420971
0.04420971
0.04420971
0.04420971
0.04420971
0.04420971
0.04420971
0.04420971
0.04420971
0.04420971
0.04420971
0.04420971
0.04420971
0.04420971
0.04420971
0.04420971
0.04420971
0.04420971
0.04420971
0.04420971
0.04420971
0.04420971
0.04420971
0.04420971
0.04420971
0.04420971
0.04420971
0.04420971
0.04420971
0.04420971
0.04420971
0.04420971
0.04420971
0.04420971
0.04420971
0.04420971
0.04420971
0.04420971
0.04420971
0.04420971
0.04420971
0.04420971
0.04420971
0.04420971
0.04420971
0.04420971
0.04420971
0.04420971
0.04420971
0.04420971
0.04420971
0.04420971
0.04420971
0.04420971
0.04420971
0.04420971
0.04420971
0.04420971
0.04420971
0.04420971
0.04420971
0.04420971
0.04420971
0.04420971
0.04420971
0.04420971
0.04420971
0.04420971
0.04420971
0.04420971
0.04420971
0.04420971
0.04420971
0.04420971
0.04420971
0.04420971
0.04420971
0.04420971
0.04420971
0.04420971
0.04420971
0.04420971
0.04420971
0.04420971
0.04420971
0.04420971
0.04420971
0.04420971
0.04420971
0.04420971
0.04420971
0.04420971
0.04420971
0.04420971
0.04420971
0.04420971
0.04420971
0.04420971
0.04420971
0.04420971
0.04420971
0.04420971
0.04420971
0.04420971
0.04420971
0.04420971
0.04420971
0.04420971
0.04420971
0.04420971
0.04420971
0.04420971
0.04420971
0.04420971
0.04420971
0.04420971
0.04420971
0.04420971
0.04420971
0.04420971
0.04420971
0.04420971
0.04420971
0.04420971
0.04420971
0.04420971
0.04420971
0.04420971
0.04420971
0.04420971
0.04420971
0.04420971
0.04420971
0.04420971
0.04420971
0.04420971
0.04420971
0.04420971
0.04420971
0.04420971
0.04420971
0.04420971
0.04420971
0.04420971
0.04420971
0.04420971
0.04420971
0.04420971
0.04420971
0.04420971
0.04420971
0.04420971
0.04420971
0.04420971
0.04420971
0.04420971
0.04420971
0.04420971
0.04420971
0.04420971
0.04420971
0.04420971
0.04420971
0.04420971
0.04420971
0.04420971
0.04420971
0.04420971
0.04420971
0.04420971
0.04420971
0.04420971
0.04420971
0.04420971
0.04420971
0.04420971
0.04420971
0.04420971
0.04420971
0.04420971
0.04420971
0.04420971
0.04420971
0.04420971
0.04420971
0.04420971
0.04420971
0.04420971
0.04420971
0.04420971
0.04420971
0.04420971
0.04420971
0.04420971
0.04420971
0.04420971
0.04420971
0.04420971
0.04420971
0.04420971
0.04420971
0.04420971
0.04420971
0.04420971
0.04420971
0.04420971
0.04420971
0.04420971
0.04420971
0.04420971
0.04420971
0.04420971
0.04420971
0.04420971
0.04420971
0.04420971
0.04420971
0.04420971
0.04420971
0.04420971
0.04420971
0.04420971
0.04420971
0.04420971
0.04420971
0.04420971
0.04420971
0.04420971
0.04420971
0.04420971
0.04420971
0.04420971
0.04420971
0.04420971
0.04420971
0.04420971
0.04420971
0.04420971
0.04420971
0.04420971
0.04420971
0.04420971
0.04420971
0.04420971
0.04420971
0.04420971
0.04420971
0.04420971
0.04420971
0.04420971
0.04420971
0.04420971
0.04420971
0.04420971
0.04420971
0.04420971
0.04420971
0.04420971
0.04420971
0.04420971
0.04420971
0.04420971
0.04420971
0.04420971
0.04420971
0.04420971
0.04420971
0.04420971
0.04420971
0.04420971
0.04420971
0.04420971
0.04420971
0.04420971
0.04420971
0.04420971
0.04420971
0.04420971
0.04420971
0.04420971
0.04420971
0.04420971


VECTORS d1 FLOAT
0 0.9074844 0.4200857
-0.009936672 0.9096913 0.4151663
-0.01985768 0.9117752 0.4102092
-0.02976181 0.9137366 0.4052155
-0.03964787 0.9155757 0.4001863
-0.04951469 0.917293 0.3951226
-0.05936109 0.9188887 0.3900254
-0.06918594 0.9203633 0.3848958
-0.07898811 0.9217171 0.3797348
-0.08876648 0.9229506 0.3745433
-0.09851995 0.9240642 0.3693225
-0.1082475 0.9250584 0.3640734
-0.1179479 0.9259336 0.358797
-0.1276203 0.9266903 0.3534942
-0.1372636 0.927329 0.3481661
-0.1468767 0.9278502 0.3428138
-0.1564587 0.9282544 0.3374381
-0.1660086 0.9285421 0.3320402
-0.1755255 0.9287139 0.326621
-0.1850083 0.9287704 0.3211814
-0.1944562 0.928712 0.3157226
-0.2038682 0.9285395 0.3102454
-0.2132434 0.9282533 0.3047508
-0.2225811 0.9278541 0.2992399
-0.2318802 0.9273424 0.2937135
-0.2411399 0.926719 0.2881726
-0.2503595 0.9259844 0.2826182
-0.259538 0.9251392 0.2770513
-0.2686748 0.9241842 0.2714727
-0.277769 0.9231199 0.2658835
-0.2868197 0.9219471 0.2602845
-0.2958264 0.9206663 0.2546767
-0.3047883 0.9192784 0.249061
-0.3137045 0.9177839 0.2434383
-0.3225745 0.9161836 0.2378096
-0.3313975 0.9144781 0.2321756
-0.3401729 0.9126682 0.2265375
-0.3488999 0.9107546 0.2208959
-0.357578 0.9087379 0.2152519
-0.3662065 0.906619 0.2096062
-0.3747848 0.9043986 0.2039598
-0.3833123 0.9020773 0.1983136
-0.3917884 0.8996559 0.1926683
-0.4002125 0.8971352 0.1870249
-0.4085841 0.894516 0.1813842
-0.4169026 0.8917989 0.1757471
-0.4251675 0.8889846 0.1701143
-0.4333783 0.8860741 0.1644868
-0.4415345 0.883068 0.1588653
-0.4496355 0.8799671 0.1532507
-0.457681 0.8767722 0.1476437
-0.4656703 0.873484 0.1420452
-0.4736032 0.8701033 0.136456
-0.4814791 0.8666309 0.1308769
-0.4892977 0.8630675 0.1253086
-0.4970584 0.859414 0.119752
-0.504761 0.8556711 0.1142078
-0.5124049 0.8518395 0.1086768
-0.5199899 0.8479201 0.1031598
-0.5275156 0.8439137 0.09765749
-0.5349815 0.839821 0.09217064
-0.5423875 0.8356428 0.0867
-0.549733 0.83138 0.08124632
-0.5570179 0.8270332 0.07581033
-0.5642418 0.8226032 0.07039276
-0.5714044 0.8180909 0.06499434
-0.5785054 0.8134971 0.05961577
-0.5855445 0.8088224 0.05425777
-0.5925215 0.8040678 0.04892106
-0.5994361 0.7992339 0.04360633
-0.606288 0.7943216 0.03831427
-0.6130771 0.7893317 0.03304558
-0.619803 0.7842649 0.02780094
-0.6264656 0.7791219 0.02258103
-0.6330646 0.7739037 0.01738653
-0.6395999 0.7686109 0.01221811
-0.6460712 0.7632444 0.007076423
-0.6524784 0.7578048 0.001962137
-0.6588212 0.7522931 -0.003124095
-0.6650996 0.7467099 -0.008181624
-0.6713133 0.741056 -0.0132098
-0.6774622 0.7353322 -0.018208
-0.6835461 0.7295393 -0.02317557
-0.6895649 0.723678 -0.02811188
-0.6955186 0.7177492 -0.03301632
-0.7014068 0.7117534 -0.03788826
-0.7072296 0.7056916 -0.04272708
-0.7129868 0.6995645 -0.04753216
-0.7186783 0.6933728 -0.05230291
-0.724304 0.6871174 -0.05703872
-0.7298639 0.6807988 -0.06173898
-0.7353577 0.674418 -0.06640311
-0.7407856 0.6679756 -0.07103051
-0.7461473 0.6614724 -0.07562059
-0.7514428 0.6549092 -0.08017278
-0.756672 0.6482867 -0.08468648
-0.761835 0.6416056 -0.08916113
-0.7669316 0.6348667 -0.09359616
-0.7719617 0.6280707 -0.097991
-0.7769255 0.6212184 -0.1023451
-0.7818227 0.6143105 -0.1066578
-0.7866534 0.6073477 -0.1109287
-0.7914175 0.6003308 -0.1151572
-0.7961151 0.5932606 -0.1193427
-0.800746 0.5861376 -0.1234847
-0.8053104 0.5789627 -0.1275826
-0.8098081 0.5717367 -0.1316359
-0.8142392 0.5644601 -0.1356441
-0.8186036 0.5571339 -0.1396067
-0.8229014 0.5497586 -0.1435231
-0.8271325 0.542335 -0.1473927
-0.831297 0.5348638 -0.1512151
-0.8353948 0.5273458 -0.1549898
-0.8394261 0.5197817 -0.1587163
-0.8433907 0.5121722 -0.162394
-0.8472887 0.5045179 -0.1660224
-0.8511202 0.4968198 -0.169601
-0.8548851 0.4890784 -0.1731295
-0.8585835 0.4812945 -0.1766071
-0.8622153 0.4734688 -0.1800335
-0.8657807 0.465602 -0.1834082
-0.8692796 0.4576948 -0.1867308
-0.8727122 0.449748 -0.1900006
-0.8760783 0.4417623 -0.1932173
-0.8793781 0.4337383 -0.1963804
-0.8826115 0.4256769 -0.1994894
-0.8857787 0.4175788 -0.2025439
-0.8888797 0.4094445 -0.2055434
-0.8919144 0.401275 -0.2084874
-0.894883 0.3930709 -0.2113757
-0.8977855 0.3848328 -0.2142076
-0.9006219 0.3765616 -0.2169827
-0.9033923 0.368258 -0.2197007
-0.9060967 0.3599227 -0.2223612
-0.9087351 0.3515564 -0.2249636
-0.9113077 0.3431598 -0.2275076
-0.9138143 0.3347337 -0.2299928
-0.9162552 0.3262788 -0.2324188
-0.9186303 0.3177958 -0.2347852
-0.9209398 0.3092855 -0.2370916
-0.9231835 0.3007486 -0.2393377
-0.9253616 0.2921858 -0.2415231
-0.9274741 0.2835979 -0.2436473
-0.9295211 0.2749855 -0.2457101
-0.9315026 0.2663495 -0.2477112
-0.9334187 0.2576906 -0.2496501
-0.9352693 0.2490095 -0.2515266
-0.9370546 0.240307 -0.2533402
-0.9387745 0.2315837 -0.2550908
-0.9404292 0.2228406 -0.256778
-0.9420187 0.2140782 -0.2584015
-0.9435429 0.2052974 -0.2599611
-0.945002 0.1964989 -0.2614564
-0.9463959 0.1876835 -0.2628871
-0.9477248 0.1788519 -0.2642531
-0.9489886 0.1700049 -0.2655541
-0.9501874 0.1611432 -0.2667898
-0.9513212 0.1522676 -0.26796
-0.95239 0.1433789 -0.2690645
-0.9533939 0.1344778 -0.2701032
-0.9543329 0.1255651 -0.2710757
-0.9552071 0.1166416 -0.271982
-0.9560164 0.1077079 -0.2728218
-0.9567608 0.09876502 -0.273595
-0.9574405 0.08981356 -0.2743015
-0.9580553 0.08085435 -0.2749411
-0.9586054 0.07188815 -0.2755137
-0.9590907 0.06291573 -0.2760192
-0.9595113 0.05393787 -0.2764575
-0.9598672 0.04495536 -0.2768285
-0.9601583 0.03596895 -0.2771321
-0.9603848 0.02697944 -0.2773683
-0.9605465 0.01798759 -0.2775371
-0.9606436 0.008994184 -0.2776384
-0.9606759 1.556789e-09 -0.2776721
-0.9606436 -0.00899418 -0.2776384
-0.9605465 -0.01798758 -0.2775371
-0.9603848 -0.02697943 -0.2773683
-0.9601583 -0.03596895 -0.2771321
-0.9598672 -0.04495535 -0.2768285
-0.9595113 -0.05393787 -0.2764575
-0.9590907 -0.06291573 -0.2760192
-0.9586054 -0.07188814 -0.2755137
-0.9580553 -0.08085435 -0.2749411
-0.9574405 -0.08981356 -0.2743015
-0.9567608 -0.09876501 -0.273595
-0.9560164 -0.1077079 -0.2728218
-0.9552071 -0.1166416 -0.271982
-0.9543329 -0.1255651 -0.2710757
-0.9533939 -0.1344778 -0.2701032
-0.95239 -0.1433789 -0.2690645
-0.9513212 -0.1522676 -0.26796
-0.9501874 -0.1611432 -0.2667898
-0.9489886 -0.1700049 -0.2655541
-0.9477248 -0.1788519 -0.2642531
-0.9463959 -0.1876835 -0.2628871
-0.945002 -0.1964989 -0.2614564
-0.9435429 -0.2052974 -0.2599611
-0.9420187 -0.2140782 -0.2584015
-0.9404292 -0.2228406 -0.256778
-0.9387745 -0.2315837 -0.2550908
-0.9370546 -0.240307 -0.2533402
-0.9352693 -0.2490095 -0.2515266
-0.9334187 -0.2576906 -0.2496501
-0.9315026 -0.2663495 -0.2477112
-0.9295211 -0.2749855 -0.2457101
-0.9274741 -0.2835979 -0.2436473
-0.9253616 -0.2921858 -0.2415231
-0.9231835 -0.3007486 -0.2393377
-0.9209398 -0.3092855 -0.2370916
-0.9186303 -0.3177958 -0.2347852
-0.9162552 -0.3262788 -0.2324188
-0.9138143 -0.3347337 -0.2299928
-0.9113077 -0.3431598 -0.2275076
-0.9087351 -0.3515564 -0.2249636
-0.9060967 -0.3599227 -0.2223612
-0.9033923 -0.368258 -0.2197007
-0.9006219 -0.3765616 -0.2169827
-0.8977855 -0.3848328 -0.2142076
-0.894883 -0.3930709 -0.2113757
-0.8919144 -0.401275 -0.2084874
-0.8888797 -0.4094445 -0.2055434
-0.8857787 -0.4175788 -0.2025439