# vtk DataFile Version 2.0
Written badly by Kevin Korner
ASCII
DATASET POLYDATA
POINTS 350 FLOAT
0 0 0
0.00286533 0 0
0.005730539 2.616456e-05 2.069766e-06
0.008595388 7.848823e-05 6.181186e-06
0.01145964 0.0001569633 1.23061e-05
0.01432304 0.0002615799 2.041629e-05
0.01718537 0.0003923258 3.048351e-05
0.02004638 0.0005491869 4.247945e-05
0.02290583 0.0007321464 5.63758e-05
0.02576348 0.0009411857 7.214418e-05
0.02861909 0.001176284 8.975618e-05
0.03147243 0.001437418 0.0001091834
0.03432326 0.001724562 0.0001303974
0.03717133 0.002037689 0.0001533696
0.04001642 0.002376769 0.0001780717
0.04285829 0.00274177 0.000204475
0.04569669 0.003132659 0.0002325511
0.04853139 0.003549399 0.0002622715
0.05136217 0.003991951 0.0002936076
0.05418877 0.004460276 0.0003265309
0.05701098 0.00495433 0.0003610128
0.05982855 0.005474069 0.0003970249
0.06264124 0.006019446 0.0004345386
0.06544884 0.006590411 0.0004735254
0.0682511 0.007186915 0.0005139568
0.07104779 0.007808903 0.0005558044
0.07383869 0.008456319 0.0005990397
0.07662355 0.009129108 0.0006436342
0.07940216 0.009827208 0.0006895596
0.08217428 0.01055056 0.0007367875
0.08493968 0.0112991 0.0007852895
0.08769814 0.01207275 0.0008350374
0.09044943 0.01287147 0.0008860028
0.09319332 0.01369516 0.0009381576
0.09592958 0.01454377 0.0009914736
0.09865799 0.01541721 0.001045923
0.1013783 0.01631541 0.001101477
0.1040904 0.0172383 0.001158107
0.1067939 0.01818579 0.001215787
0.1094887 0.01915781 0.001274488
0.1121745 0.02015426 0.001334182
0.1148511 0.02117506 0.001394842
0.1175184 0.02222012 0.001456439
0.120176 0.02328936 0.001518946
0.1228238 0.02438268 0.001582336
0.1254615 0.02549999 0.001646581
0.128089 0.02664119 0.001711653
0.1307059 0.02780618 0.001777526
0.1333122 0.02899487 0.001844172
0.1359076 0.03020716 0.001911563
0.1384918 0.03144293 0.001979674
0.1410648 0.03270209 0.002048476
0.1436261 0.03398453 0.002117943
0.1461758 0.03529013 0.002188049
0.1487134 0.03661879 0.002258766
0.1512389 0.0379704 0.002330069
0.1537521 0.03934485 0.002401929
0.1562526 0.040742 0.002474322
0.1587404 0.04216175 0.002547221
0.1612152 0.04360398 0.0026206
0.1636769 0.04506857 0.002694433
0.1661251 0.04655539 0.002768694
0.1685598 0.04806431 0.002843357
0.1709807 0.04959521 0.002918397
0.1733877 0.05114797 0.002993788
0.1757805 0.05272244 0.003069505
0.1781589 0.05431851 0.003145523
0.1805228 0.05593603 0.003221816
0.1828719 0.05757487 0.003298359
0.1852061 0.05923489 0.003375128
0.1875252 0.06091596 0.003452099
0.189829 0.06261793 0.003529246
0.1921173 0.06434066 0.003606545
0.1943899 0.06608401 0.003683972
0.1966467 0.06784783 0.003761503
0.1988875 0.06963198 0.003839115
0.201112 0.07143631 0.003916782
0.2033201 0.07326066 0.003994482
0.2055116 0.07510489 0.004072191
0.2076864 0.07696884 0.004149887
0.2098443 0.07885236 0.004227545
0.2119851 0.08075529 0.004305143
0.2141086 0.08267748 0.004382659
0.2162147 0.08461876 0.004460069
0.2183032 0.08657897 0.004537351
0.2203739 0.08855796 0.004614483
0.2224266 0.09055556 0.004691444
0.2244613 0.0925716 0.00476821
0.2264776 0.09460591 0.004844761
0.2284756 0.09665834 0.004921074
0.230455 0.09872871 0.00499713
0.2324156 0.1008169 0.005072906
0.2343573 0.1029226 0.005148381
0.23628 0.1050458 0.005223535
0.2381834 0.1071862 0.005298348
0.2400675 0.1093437 0.005372799
0.2419321 0.111518 0.005446867
0.243777 0.1137091 0.005520534
0.2456022 0.1159168 0.005593778
0.2474073 0.1181408 0.005666582
0.2491924 0.120381 0.005738925
0.2509572 0.1226372 0.005810788
0.2527017 0.1249091 0.005882152
0.2544256 0.1271967 0.005952999
0.2561289 0.1294998 0.00602331
0.2578114 0.1318181 0.006093068
0.259473 0.1341514 0.006162253
0.2611135 0.1364996 0.006230849
0.2627328 0.1388625 0.006298837
0.2643309 0.1412399 0.0063662
0.2659074 0.1436315 0.006432921
0.2674625 0.1460373 0.006498983
0.2689958 0.1484569 0.00656437
0.2705073 0.1508903 0.006629065
0.271997 0.1533371 0.006693051
0.2734645 0.1557973 0.006756314
0.2749099 0.1582706 0.006818836
0.276333 0.1607567 0.006880603
0.2777338 0.1632556 0.006941599
0.279112 0.165767 0.007001809
0.2804676 0.1682906 0.007061218
0.2818006 0.1708264 0.007119812
0.2831107 0.173374 0.007177576
0.2843978 0.1759333 0.007234497
0.285662 0.1785041 0.00729056
0.286903 0.1810861 0.007345752
0.2881208 0.1836792 0.007400059
0.2893153 0.1862831 0.007453469
0.2904864 0.1888977 0.007505968
0.2916339 0.1915227 0.007557544
0.2927579 0.1941579 0.007608184
0.2938582 0.1968031 0.007657877
0.2949347 0.199458 0.007706611
0.2959874 0.2021225 0.007754374
0.2970161 0.2047964 0.007801154
0.2980209 0.2074794 0.007846941
0.2990015 0.2101714 0.007891723
0.2999579 0.212872 0.007935491
0.3008901 0.2155811 0.007978233
0.301798 0.2182985 0.00801994
0.3026815 0.2210239 0.008060603
0.3035405 0.2237572 0.00810021
0.304375 0.226498 0.008138754
0.3051849 0.2292462 0.008176225
0.3059701 0.2320016 0.008212615
0.3067306 0.234764 0.008247914
0.3074663 0.237533 0.008282116
0.3081772 0.2403086 0.008315211
0.3088632 0.2430904 0.008347192
0.3095243 0.2458782 0.008378052
0.3101603 0.2486719 0.008407784
0.3107713 0.2514712 0.00843638
0.3113572 0.2542759 0.008463835
0.311918 0.2570857 0.008490141
0.3124536 0.2599004 0.008515294
0.3129639 0.2627198 0.008539286
0.313449 0.2655437 0.008562113
0.3139087 0.2683718 0.008583769
0.3143432 0.2712039 0.008604249
0.3147522 0.2740398 0.008623549
0.3151358 0.2768793 0.008641664
0.315494 0.2797221 0.008658591
0.3158267 0.282568 0.008674324
0.316134 0.2854168 0.008688861
0.3164157 0.2882682 0.008702198
0.3166719 0.291122 0.008714332
0.3169025 0.2939781 0.008725261
0.3171075 0.296836 0.008734982
0.3172869 0.2996957 0.008743493
0.3174408 0.3025569 0.008750791
0.317569 0.3054194 0.008756876
0.3176716 0.3082828 0.008761745
0.3177485 0.3111471 0.008765398
0.3177998 0.314012 0.008767834
0.3178255 0.3168772 0.008769052
0.3178255 0.3197426 0.008769052
0.3177998 0.3226078 0.008767834
0.3177485 0.3254726 0.008765398
0.3176716 0.3283369 0.008761745
0.317569 0.3312004 0.008756876
0.3174408 0.3340629 0.008750791
0.3172869 0.3369241 0.008743493
0.3171075 0.3397838 0.008734982
0.3169025 0.3426417 0.008725261
0.3166719 0.3454977 0.008714332
0.3164157 0.3483516 0.008702198
0.316134 0.351203 0.008688861
0.3158267 0.3540518 0.008674324
0.315494 0.3568977 0.008658591
0.3151358 0.3597405 0.008641664
0.3147522 0.3625799 0.008623549
0.3143432 0.3654158 0.008604249
0.3139087 0.368248 0.008583769
0.313449 0.3710761 0.008562113
0.3129639 0.3739 0.008539286
0.3124536 0.3767194 0.008515294
0.311918 0.3795341 0.008490141
0.3113572 0.3823439 0.008463835
0.3107713 0.3851486 0.00843638
0.3101603 0.3879478 0.008407784
0.3095243 0.3907415 0.008378052
0.3088632 0.3935294 0.008347192
0.3081772 0.3963112 0.008315211
0.3074663 0.3990868 0.008282116
0.3067306 0.4018558 0.008247914
0.3059701 0.4046181 0.008212615
0.3051849 0.4073735 0.008176225
0.304375 0.4101218 0.008138754
0.3035405 0.4128626 0.00810021
0.3026815 0.4155959 0.008060603
0.301798 0.4183213 0.00801994
0.3008901 0.4210387 0.007978233
0.2999579 0.4237478 0.007935491
0.2990015 0.4264484 0.007891723
0.2980209 0.4291403 0.007846941
0.2970161 0.4318233 0.007801154
0.2959874 0.4344972 0.007754374
0.2949347 0.4371618 0.007706611
0.2938582 0.4398167 0.007657877
0.2927579 0.4424619 0.007608184
0.2916339 0.4450971 0.007557544
0.2904864 0.4477221 0.007505968
0.2893153 0.4503366 0.007453469
0.2881208 0.4529406 0.007400059
0.286903 0.4555337 0.007345752
0.285662 0.4581157 0.00729056
0.2843978 0.4606865 0.007234497
0.2831107 0.4632458 0.007177576
0.2818006 0.4657934 0.007119812
0.2804676 0.4683292 0.007061218
0.279112 0.4708528 0.007001809
0.2777338 0.4733642 0.006941599
0.276333 0.475863 0.006880603
0.2749099 0.4783492 0.006818836
0.2734645 0.4808225 0.006756314
0.271997 0.4832826 0.006693051
0.2705073 0.4857295 0.006629065
0.2689958 0.4881628 0.00656437
0.2674625 0.4905825 0.006498983
0.2659074 0.4929882 0.006432921
0.2643309 0.4953799 0.0063662
0.2627328 0.4977573 0.006298837
0.2611135 0.5001202 0.006230849
0.259473 0.5024684 0.006162253
0.2578114 0.5048017 0.006093068
0.2561289 0.50712 0.00602331
0.2544256 0.509423 0.005952999
0.2527017 0.5117106 0.005882152
0.2509572 0.5139826 0.005810788
0.2491924 0.5162388 0.005738925
0.2474073 0.518479 0.005666582
0.2456022 0.520703 0.005593778
0.243777 0.5229106 0.005520534
0.2419321 0.5251017 0.005446867
0.2400675 0.5272761 0.005372799
0.2381834 0.5294336 0.005298348
0.23628 0.531574 0.005223535
0.2343573 0.5336972 0.005148381
0.2324156 0.5358029 0.005072906
0.230455 0.5378911 0.00499713
0.2284756 0.5399614 0.004921074
0.2264776 0.5420139 0.004844761
0.2244613 0.5440482 0.00476821
0.2224266 0.5460642 0.004691444
0.2203739 0.5480618 0.004614483
0.2183032 0.5500408 0.004537351
0.2162147 0.552001 0.004460069
0.2141086 0.5539423 0.004382659
0.2119851 0.5558645 0.004305143
0.2098443 0.5577674 0.004227545
0.2076864 0.5596509 0.004149887
0.2055116 0.5615149 0.004072191
0.2033201 0.5633591 0.003994482
0.201112 0.5651835 0.003916782
0.1988875 0.5669878 0.003839115
0.1966467 0.5687719 0.003761503
0.1943899 0.5705358 0.003683972
0.1921173 0.5722791 0.003606545
0.189829 0.5740018 0.003529246
0.1875252 0.5757038 0.003452099
0.1852061 0.5773849 0.003375128
0.1828719 0.5790449 0.003298359
0.1805228 0.5806837 0.003221816
0.1781589 0.5823013 0.003145523
0.1757805 0.5838973 0.003069505
0.1733877 0.5854718 0.002993788
0.1709807 0.5870246 0.002918397
0.1685598 0.5885555 0.002843357
0.1661251 0.5900644 0.002768694
0.1636769 0.5915512 0.002694433
0.1612152 0.5930158 0.0026206
0.1587404 0.594458 0.002547221
0.1562526 0.5958778 0.002474322
0.1537521 0.5972749 0.002401929
0.1512389 0.5986494 0.002330069
0.1487134 0.600001 0.002258766
0.1461758 0.6013296 0.002188049
0.1436261 0.6026352 0.002117943
0.1410648 0.6039177 0.002048476
0.1384918 0.6051768 0.001979674
0.1359076 0.6064126 0.001911563
0.1333122 0.6076249 0.001844172
0.1307059 0.6088136 0.001777526
0.128089 0.6099786 0.001711653
0.1254615 0.6111198 0.001646581
0.1228238 0.6122371 0.001582336
0.120176 0.6133304 0.001518946
0.1175184 0.6143997 0.001456439
0.1148511 0.6154447 0.001394842
0.1121745 0.6164655 0.001334182
0.1094887 0.617462 0.001274488
0.1067939 0.618434 0.001215787
0.1040904 0.6193815 0.001158107
0.1013783 0.6203044 0.001101477
0.09865799 0.6212026 0.001045923
0.09592958 0.622076 0.0009914736
0.09319332 0.6229246 0.0009381576
0.09044943 0.6237483 0.0008860028
0.08769814 0.624547 0.0008350374
0.08493968 0.6253207 0.0007852895
0.08217428 0.6260692 0.0007367875
0.07940216 0.6267926 0.0006895596
0.07662355 0.6274907 0.0006436342
0.07383869 0.6281635 0.0005990397
0.07104779 0.6288109 0.0005558044
0.0682511 0.6294329 0.0005139568
0.06544884 0.6300294 0.0004735254
0.06264124 0.6306003 0.0004345386
0.05982855 0.6311457 0.0003970249
0.05701098 0.6316654 0.0003610128
0.05418877 0.6321595 0.0003265309
0.05136217 0.6326278 0.0002936076
0.04853139 0.6330704 0.0002622715
0.04569669 0.6334871 0.0002325511
0.04285829 0.633878 0.000204475
0.04001642 0.634243 0.0001780717
0.03717133 0.6345821 0.0001533696
0.03432326 0.6348952 0.0001303974
0.03147243 0.6351824 0.0001091834
0.02861909 0.6354435 8.975618e-05
0.02576348 0.6356786 7.214418e-05
0.02290583 0.6358876 5.63758e-05
0.02004638 0.6360706 4.247945e-05
0.01718537 0.6362274 3.048351e-05
0.01432304 0.6363582 2.041629e-05
0.01145964 0.6364628 1.23061e-05
0.008595388 0.6365413 6.181186e-06
0.005730539 0.6365936 2.069766e-06
0.00286533 0.6366198 0
0 0.6366198 0

LINES 349 1047
2 0 1
2 1 2
2 2 3
2 3 4
2 4 5
2 5 6
2 6 7
2 7 8
2 8 9
2 9 10
2 10 11
2 11 12
2 12 13
2 13 14
2 14 15
2 15 16
2 16 17
2 17 18
2 18 19
2 19 20
2 20 21
2 21 22
2 22 23
2 23 24
2 24 25
2 25 26
2 26 27
2 27 28
2 28 29
2 29 30
2 30 31
2 31 32
2 32 33
2 33 34
2 34 35
2 35 36
2 36 37
2 37 38
2 38 39
2 39 40
2 40 41
2 41 42
2 42 43
2 43 44
2 44 45
2 45 46
2 46 47
2 47 48
2 48 49
2 49 50
2 50 51
2 51 52
2 52 53
2 53 54
2 54 55
2 55 56
2 56 57
2 57 58
2 58 59
2 59 60
2 60 61
2 61 62
2 62 63
2 63 64
2 64 65
2 65 66
2 66 67
2 67 68
2 68 69
2 69 70
2 70 71
2 71 72
2 72 73
2 73 74
2 74 75
2 75 76
2 76 77
2 77 78
2 78 79
2 79 80
2 80 81
2 81 82
2 82 83
2 83 84
2 84 85
2 85 86
2 86 87
2 87 88
2 88 89
2 89 90
2 90 91
2 91 92
2 92 93
2 93 94
2 94 95
2 95 96
2 96 97
2 97 98
2 98 99
2 99 100
2 100 101
2 101 102
2 102 103
2 103 104
2 104 105
2 105 106
2 106 107
2 107 108
2 108 109
2 109 110
2 110 111
2 111 112
2 112 113
2 113 114
2 114 115
2 115 116
2 116 117
2 117 118
2 118 119
2 119 120
2 120 121
2 121 122
2 122 123
2 123 124
2 124 125
2 125 126
2 126 127
2 127 128
2 128 129
2 129 130
2 130 131
2 131 132
2 132 133
2 133 134
2 134 135
2 135 136
2 136 137
2 137 138
2 138 139
2 139 140
2 140 141
2 141 142
2 142 143
2 143 144
2 144 145
2 145 146
2 146 147
2 147 148
2 148 149
2 149 150
2 150 151
2 151 152
2 152 153
2 153 154
2 154 155
2 155 156
2 156 157
2 157 158
2 158 159
2 159 160
2 160 161
2 161 162
2 162 163
2 163 164
2 164 165
2 165 166
2 166 167
2 167 168
2 168 169
2 169 170
2 170 171
2 171 172
2 172 173
2 173 174
2 174 175
2 175 176
2 176 177
2 177 178
2 178 179
2 179 180
2 180 181
2 181 182
2 182 183
2 183 184
2 184 185
2 185 186
2 186 187
2 187 188
2 188 189
2 189 190
2 190 191
2 191 192
2 192 193
2 193 194
2 194 195
2 195 196
2 196 197
2 197 198
2 198 199
2 199 200
2 200 201
2 201 202
2 202 203
2 203 204
2 204 205
2 205 206
2 206 207
2 207 208
2 208 209
2 209 210
2 210 211
2 211 212
2 212 213
2 213 214
2 214 215
2 215 216
2 216 217
2 217 218
2 218 219
2 219 220
2 220 221
2 221 222
2 222 223
2 223 224
2 224 225
2 225 226
2 226 227
2 227 228
2 228 229
2 229 230
2 230 231
2 231 232
2 232 233
2 233 234
2 234 235
2 235 236
2 236 237
2 237 238
2 238 239
2 239 240
2 240 241
2 241 242
2 242 243
2 243 244
2 244 245
2 245 246
2 246 247
2 247 248
2 248 249
2 249 250
2 250 251
2 251 252
2 252 253
2 253 254
2 254 255
2 255 256
2 256 257
2 257 258
2 258 259
2 259 260
2 260 261
2 261 262
2 262 263
2 263 264
2 264 265
2 265 266
2 266 267
2 267 268
2 268 269
2 269 270
2 270 271
2 271 272
2 272 273
2 273 274
2 274 275
2 275 276
2 276 277
2 277 278
2 278 279
2 279 280
2 280 281
2 281 282
2 282 283
2 283 284
2 284 285
2 285 286
2 286 287
2 287 288
2 288 289
2 289 290
2 290 291
2 291 292
2 292 293
2 293 294
2 294 295
2 295 296
2 296 297
2 297 298
2 298 299
2 299 300
2 300 301
2 301 302
2 302 303
2 303 304
2 304 305
2 305 306
2 306 307
2 307 308
2 308 309
2 309 310
2 310 311
2 311 312
2 312 313
2 313 314
2 314 315
2 315 316
2 316 317
2 317 318
2 318 319
2 319 320
2 320 321
2 321 322
2 322 323
2 323 324
2 324 325
2 325 326
2 326 327
2 327 328
2 328 329
2 329 330
2 330 331
2 331 332
2 332 333
2 333 334
2 334 335
2 335 336
2 336 337
2 337 338
2 338 339
2 339 340
2 340 341
2 341 342
2 342 343
2 343 344
2 344 345
2 345 346
2 346 347
2 347 348
2 348 349


POINT_DATA 350
SCALARS a FLOAT 1
LOOKUP_TABLE default
0.0005894628
0.0005894628
0.0005894628
0.0005894628
0.0005894628
0.0005894628
0.0005894628
0.0005894628
0.0005894628
0.0005894628
0.0005894628
0.0005894628
0.0005894628
0.0005894628
0.0005894628
0.0005894628
0.0005894628
0.0005894628
0.0005894628
0.0005894628
0.0005894628
0.0005894628
0.0005894628
0.0005894628
0.0005894628
0.0005894628
0.0005894628
0.0005894628
0.0005894628
0.0005894628
0.0005894628
0.0005894628
0.0005894628
0.0005894628
0.0005894628
0.0005894628
0.0005894628
0.0005894628
0.0005894628
0.0005894628
0.0005894628
0.0005894628
0.0005894628
0.0005894628
0.0005894628
0.0005894628
0.0005894628
0.0005894628
0.0005894628
0.0005894628
0.0005894628
0.0005894628
0.0005894628
0.0005894628
0.0005894628
0.0005894628
0.0005894628
0.0005894628
0.0005894628
0.0005894628
0.0005894628
0.0005894628
0.0005894628
0.0005894628
0.0005894628
0.0005894628
0.0005894628
0.0005894628
0.0005894628
0.0005894628
0.0005894628
0.0005894628
0.0005894628
0.0005894628
0.0005894628
0.0005894628
0.0005894628
0.0005894628
0.0005894628
0.0005894628
0.0005894628
0.0005894628
0.0005894628
0.0005894628
0.0005894628
0.0005894628
0.0005894628
0.0005894628
0.0005894628
0.0005894628
0.0005894628
0.0005894628
0.0005894628
0.0005894628
0.0005894628
0.0005894628
0.0005894628
0.0005894628
0.0005894628
0.0005894628
0.0005894628
0.0005894628
0.0005894628
0.0005894628
0.0005894628
0.0005894628
0.0005894628
0.0005894628
0.0005894628
0.0005894628
0.0005894628
0.0005894628
0.0005894628
0.0005894628
0.0005894628
0.0005894628
0.0005894628
0.0005894628
0.0005894628
0.0005894628
0.0005894628
0.0005894628
0.0005894628
0.0005894628
0.0005894628
0.0005894628
0.0005894628
0.0005894628
0.0005894628
0.0005894628
0.0005894628
0.0005894628
0.0005894628
0.0005894628
0.0005894628
0.0005894628
0.0005894628
0.0005894628
0.0005894628
0.0005894628
0.0005894628
0.0005894628
0.0005894628
0.0005894628
0.0005894628
0.0005894628
0.0005894628
0.0005894628
0.0005894628
0.0005894628
0.0005894628
0.0005894628
0.0005894628
0.0005894628
0.0005894628
0.0005894628
0.0005894628
0.0005894628
0.0005894628
0.0005894628
0.0005894628
0.0005894628
0.0005894628
0.0005894628
0.0005894628
0.0005894628
0.0005894628
0.0005894628
0.0005894628
0.0005894628
0.0005894628
0.0005894628
0.0005894628
0.0005894628
0.0005894628
0.0005894628
0.0005894628
0.0005894628
0.0005894628
0.0005894628
0.0005894628
0.0005894628
0.0005894628
0.0005894628
0.0005894628
0.0005894628
0.0005894628
0.0005894628
0.0005894628
0.0005894628
0.0005894628
0.0005894628
0.0005894628
0.0005894628
0.0005894628
0.0005894628
0.0005894628
0.0005894628
0.0005894628
0.0005894628
0.0005894628
0.0005894628
0.0005894628
0.0005894628
0.0005894628
0.0005894628
0.0005894628
0.0005894628
0.0005894628
0.0005894628
0.0005894628
0.0005894628
0.0005894628
0.0005894628
0.0005894628
0.0005894628
0.0005894628
0.0005894628
0.0005894628
0.0005894628
0.0005894628
0.0005894628
0.0005894628
0.0005894628
0.0005894628
0.0005894628
0.0005894628
0.0005894628
0.0005894628
0.0005894628
0.0005894628
0.0005894628
0.0005894628
0.0005894628
0.0005894628
0.0005894628
0.0005894628
0.0005894628
0.0005894628
0.0005894628
0.0005894628
0.0005894628
0.0005894628
0.0005894628
0.0005894628
0.0005894628
0.0005894628
0.0005894628
0.0005894628
0.0005894628
0.0005894628
0.0005894628
0.0005894628
0.0005894628
0.0005894628
0.0005894628
0.0005894628
0.0005894628
0.0005894628
0.0005894628
0.0005894628
0.0005894628
0.0005894628
0.0005894628
0.0005894628
0.0005894628
0.0005894628
0.0005894628
0.0005894628
0.0005894628
0.0005894628
0.0005894628
0.0005894628
0.0005894628
0.0005894628
0.0005894628
0.0005894628
0.0005894628
0.0005894628
0.0005894628
0.0005894628
0.0005894628
0.0005894628
0.0005894628
0.0005894628
0.0005894628
0.0005894628
0.0005894628
0.0005894628
0.0005894628
0.0005894628
0.0005894628
0.0005894628
0.0005894628
0.0005894628
0.0005894628
0.0005894628
0.0005894628
0.0005894628
0.0005894628
0.0005894628
0.0005894628
0.0005894628
0.0005894628
0.0005894628
0.0005894628
0.0005894628
0.0005894628
0.0005894628
0.0005894628
0.0005894628
0.0005894628
0.0005894628
0.0005894628
0.0005894628
0.0005894628
0.0005894628
0.0005894628
0.0005894628
0.0005894628
0.0005894628
0.0005894628
0.0005894628
0.0005894628
0.0005894628
0.0005894628
0.0005894628
0.0005894628
0.0005894628
0.0005894628
0.0005894628
0.0005894628
0.0005894628
0.0005894628
0.0005894628
0.0005894628
0.0005894628
0.0005894628
0.0005894628
0.0005894628
0.0005894628
0.0005894628
0.0005894628
0.0005894628
0.0005894628
0.0005894628
0.0005894628
0.0005894628
0.0005894628
0.0005894628


SCALARS b FLOAT 1
LOOKUP_TABLE default
0.04420971
0.04420971
0.04420971
0.04420971
0.04420971
0.04420971
0.04420971
0.04420971
0.04420971
0.04420971
0.04420971
0.04420971
0.04420971
0.04420971
0.04420971
0.04420971
0.04420971
0.04420971
0.04420971
0.04420971
0.04420971
0.04420971
0.04420971
0.04420971
0.04420971
0.04420971
0.04420971
0.04420971
0.04420971
0.04420971
0.04420971
0.04420971
0.04420971
0.04420971
0.04420971
0.04420971
0.04420971
0.04420971
0.04420971
0.04420971
0.04420971
0.04420971
0.04420971
0.04420971
0.04420971
0.04420971
0.04420971
0.04420971
0.04420971
0.04420971
0.04420971
0.04420971
0.04420971
0.04420971
0.04420971
0.04420971
0.04420971
0.04420971
0.04420971
0.04420971
0.04420971
0.04420971
0.04420971
0.04420971
0.04420971
0.04420971
0.04420971
0.04420971
0.04420971
0.04420971
0.04420971
0.04420971
0.04420971
0.04420971
0.04420971
0.04420971
0.04420971
0.04420971
0.04420971
0.04420971
0.04420971
0.04420971
0.04420971
0.04420971
0.04420971
0.04420971
0.04420971
0.04420971
0.04420971
0.04420971
0.04420971
0.04420971
0.04420971
0.04420971
0.04420971
0.04420971
0.04420971
0.04420971
0.04420971
0.04420971
0.04420971
0.04420971
0.04420971
0.04420971
0.04420971
0.04420971
0.04420971
0.04420971
0.04420971
0.04420971
0.04420971
0.04420971
0.04420971
0.04420971
0.04420971
0.04420971
0.04420971
0.04420971
0.04420971
0.04420971
0.04420971
0.04420971
0.04420971
0.04420971
0.04420971
0.04420971
0.04420971
0.04420971
0.04420971
0.04420971
0.04420971
0.04420971
0.04420971
0.04420971
0.04420971
0.04420971
0.04420971
0.04420971
0.04420971
0.04420971
0.04420971
0.04420971
0.04420971
0.04420971
0.04420971
0.04420971
0.04420971
0.04420971
0.04420971
0.04420971
0.04420971
0.04420971
0.04420971
0.04420971
0.04420971
0.04420971
0.04420971
0.04420971
0.04420971
0.04420971
0.04420971
0.04420971
0.04420971
0.04420971
0.04420971
0.04420971
0.04420971
0.04420971
0.04420971
0.04420971
0.04420971
0.04420971
0.04420971
0.04420971
0.04420971
0.04420971
0.04420971
0.04420971
0.04420971
0.04420971
0.04420971
0.04420971
0.04420971
0.04420971
0.04420971
0.04420971
0.04420971
0.04420971
0.04420971
0.04420971
0.04420971
0.04420971
0.04420971
0.04420971
0.04420971
0.04420971
0.04420971
0.04420971
0.04420971
0.04420971
0.04420971
0.04420971
0.04420971
0.04420971
0.04420971
0.04420971
0.04420971
0.04420971
0.04420971
0.04420971
0.04420971
0.04420971
0.04420971
0.04420971
0.04420971
0.04420971
0.04420971
0.04420971
0.04420971
0.04420971
0.04420971
0.04420971
0.04420971
0.04420971
0.04420971
0.04420971
0.04420971
0.04420971
0.04420971
0.04420971
0.04420971
0.04420971
0.04420971
0.04420971
0.04420971
0.04420971
0.04420971
0.04420971
0.04420971
0.04420971
0.04420971
0.04420971
0.04420971
0.04420971
0.04420971
0.04420971
0.04420971
0.04420971
0.04420971
0.04420971
0.04420971
0.04420971
0.04420971
0.04420971
0.04420971
0.04420971
0.04420971
0.04420971
0.04420971
0.04420971
0.04420971
0.04420971
0.04420971
0.04420971
0.04420971
0.04420971
0.04420971
0.04420971
0.04420971
0.04420971
0.04420971
0.04420971
0.04420971
0.04420971
0.04420971
0.04420971
0.04420971
0.04420971
0.04420971
0.04420971
0.04420971
0.04420971
0.04420971
0.04420971
0.04420971
0.04420971
0.04420971
0.04420971
0.04420971
0.04420971
0.04420971
0.04420971
0.04420971
0.04420971
0.04420971
0.04420971
0.04420971
0.04420971
0.04420971
0.04420971
0.04420971
0.04420971
0.04420971
0.04420971
0.04420971
0.04420971
0.04420971
0.04420971
0.04420971
0.04420971
0.04420971
0.04420971
0.04420971
0.04420971
0.04420971
0.04420971
0.04420971
0.04420971
0.04420971
0.04420971
0.04420971
0.04420971
0.04420971
0.04420971
0.04420971
0.04420971
0.04420971
0.04420971
0.04420971
0.04420971
0.04420971
0.04420971
0.04420971
0.04420971
0.04420971
0.04420971
0.04420971
0.04420971
0.04420971
0.04420971
0.04420971
0.04420971
0.04420971
0.04420971
0.04420971
0.04420971
0.04420971
0.04420971
0.04420971
0.04420971


VECTORS d1 FLOAT
0 0.9968429 0.07939863
-0.009159958 0.9968842 0.07834505
-0.01831724 0.9968405 0.07728901
-0.02747106 0.9967117 0.07623064
-0.03662066 0.9964981 0.07517006
-0.04576525 0.9961996 0.07410739
-0.05490408 0.9958164 0.07304277
-0.06403637 0.9953486 0.07197631
-0.07316135 0.9947962 0.07090813
-0.08227826 0.9941594 0.06983838
-0.09138634 0.9934383 0.06876716
-0.1004848 0.992633 0.0676946
-0.109573 0.9917436 0.06662083
-0.11865 0.9907704 0.06554596
-0.1277151 0.9897133 0.06447013
-0.1367676 0.9885726 0.06339346
-0.1458068 0.9873485 0.06231606
-0.1548318 0.9860411 0.06123807
-0.163842 0.9846505 0.0601596
-0.1728365 0.983177 0.05908078
-0.1818147 0.9816207 0.05800174
-0.1907758 0.9799818 0.05692258
-0.1997191 0.9782606 0.05584344
-0.2086438 0.9764572 0.05476444
-0.2175492 0.9745718 0.05368569
-0.2264346 0.9726047 0.05260732
-0.2352992 0.970556 0.05152946
-0.2441423 0.9684261 0.05045221
-0.2529633 0.9662151 0.04937571
-0.2617613 0.9639233 0.04830006
-0.2705357 0.9615509 0.0472254
-0.2792857 0.9590983 0.04615184
-0.2880107 0.9565656 0.04507949
-0.2967099 0.9539531 0.04400848
-0.3053827 0.9512611 0.04293893
-0.3140283 0.9484899 0.04187095
-0.322646 0.9456398 0.04080466
-0.3312352 0.942711 0.03974018
-0.3397951 0.9397038 0.03867763
-0.3483251 0.9366187 0.03761712
-0.3568245 0.9334558 0.03655876
-0.3652926 0.9302155 0.03550267
-0.3737287 0.9268981 0.03444897
-0.3821322 0.923504 0.03339777
-0.3905023 0.9200334 0.03234919
-0.3988385 0.9164867 0.03130334
-0.40714 0.9128643 0.03026032
-0.4154062 0.9091666 0.02922026
-0.4236365 0.9053937 0.02818327
-0.4318302 0.9015462 0.02714946
-0.4399866 0.8976244 0.02611893
-0.4481051 0.8936287 0.0250918
-0.456185 0.8895594 0.02406818
-0.4642258 0.8854169 0.02304818
-0.4722268 0.8812017 0.02203191
-0.4801873 0.8769141 0.02101947
-0.4881068 0.8725545 0.02001098
-0.4959846 0.8681233 0.01900653
-0.5038201 0.8636209 0.01800624
-0.5116127 0.8590478 0.01701021
-0.5193618 0.8544043 0.01601855
-0.5270668 0.8496909 0.01503136
-0.5347271 0.844908 0.01404875
-0.542342 0.8400561 0.01307082
-0.5499111 0.8351356 0.01209766
-0.5574336 0.8301469 0.0111294
-0.5649091 0.8250905 0.01016611
-0.572337 0.8199668 0.009207918
-0.5797166 0.8147764 0.008254908
-0.5870474 0.8095196 0.007307183
-0.5943289 0.8041969 0.006364842
-0.6015605 0.7988088 0.005427984
-0.6087416 0.7933558 0.004496705
-0.6158717 0.7878384 0.003571103
-0.6229502 0.782257 0.002651272
-0.6299767 0.7766121 0.001737309
-0.6369504 0.7709043 0.0008293068
-0.6438711 0.765134 -7.263991e-05
-0.650738 0.7593018 -0.0009684384
-0.6575507 0.753408 -0.001857996
-0.6643086 0.7474534 -0.002741223
-0.6710113 0.7414383 -0.003618027
-0.6776583 0.7353633 -0.004488318
-0.6842489 0.7292289 -0.005352008
-0.6907828 0.7230356 -0.006209008
-0.6972595 0.716784 -0.00705923
-0.7036784 0.7104747 -0.007902589
-0.7100391 0.704108 -0.008738997
-0.7163411 0.6976847 -0.00956837
-0.7225839 0.6912052 -0.01039062
-0.728767 0.6846701 -0.01120567
-0.73489 0.6780799 -0.01201344
-0.7409525 0.6714352 -0.01281383
-0.7469539 0.6647366 -0.01360678
-0.7528938 0.6579846 -0.0143922
-0.7587719 0.6511798 -0.01517001
-0.7645875 0.6443228 -0.01594013
-0.7703404 0.6374141 -0.01670249
-0.77603 0.6304543 -0.01745701
-0.781656 0.623444 -0.01820361
-0.787218 0.6163838 -0.01894222
-0.7927154 0.6092743 -0.01967276
-0.798148 0.6021161 -0.02039516
-0.8035153 0.5949097 -0.02110935
-0.8088169 0.5876558 -0.02181526
-0.8140524 0.5803549 -0.02251281
-0.8192215 0.5730077 -0.02320194
-0.8243237 0.5656147 -0.02388258
-0.8293587 0.5581767 -0.02455465
-0.8343261 0.5506941 -0.0252181
-0.8392255 0.5431676 -0.02587285
-0.8440567 0.5355979 -0.02651884
-0.8488191 0.5279855 -0.02715601
-0.8535125 0.520331 -0.0277843
-0.8581366 0.5126352 -0.02840363
-0.8626909 0.5048986 -0.02901396
-0.8671752 0.4971218 -0.02961521
-0.8715891 0.4893055 -0.03020734
-0.8759324 0.4814503 -0.03079027
-0.8802046 0.4735569 -0.03136396
-0.8844055 0.4656259 -0.03192835
-0.8885348 0.4576579 -0.03248337
-0.8925921 0.4496536 -0.03302899
-0.8965772 0.4416137 -0.03356513
-0.9004898 0.4335387 -0.03409176
-0.9043296 0.4254294 -0.03460881
-0.9080963 0.4172863 -0.03511624
-0.9117897 0.4091102 -0.03561399
-0.9154094 0.4009017 -0.03610203
-0.9189553 0.3926615 -0.03658029
-0.922427 0.3843902 -0.03704874
-0.9258243 0.3760884 -0.03750733
-0.929147 0.3677569 -0.037956
-0.9323948 0.3593964 -0.03839473
-0.9355675 0.3510074 -0.03882346
-0.9386648 0.3425907 -0.03924215
-0.9416866 0.3341469 -0.03965077
-0.9446326 0.3256767 -0.04004927
-0.9475026 0.3171809 -0.04043761
-0.9502963 0.3086599 -0.04081576
-0.9530137 0.3001146 -0.04118368
-0.9556545 0.2915456 -0.04154133
-0.9582184 0.2829536 -0.04188868
-0.9607054 0.2743393 -0.04222569
-0.9631153 0.2657034 -0.04255233
-0.9654478 0.2570465 -0.04286857
-0.9677028 0.2483693 -0.04317438
-0.9698801 0.2396726 -0.04346973
-0.9719796 0.230957 -0.04375459
-0.9740012 0.2222232 -0.04402894
-0.9759446 0.2134718 -0.04429273
-0.9778098 0.2047037 -0.04454596
-0.9795966 0.1959195 -0.04478859
-0.9813049 0.1871198 -0.04502061
-0.9829346 0.1783054 -0.04524198
-0.9844855 0.1694769 -0.0454527
-0.9859575 0.1606351 -0.04565272
-0.9873506 0.1517807 -0.04584205
-0.9886646 0.1429143 -0.04602066
-0.9898994 0.1340367 -0.04618853
-0.991055 0.1251485 -0.04634564
-0.9921312 0.1162505 -0.04649199
-0.993128 0.1073434 -0.04662755
-0.9940454 0.09842776 -0.04675232
-0.9948832 0.08950443 -0.04686627
-0.9956413 0.08057405 -0.04696941
-0.9963199 0.07163734 -0.04706172
-0.9969187 0.062695 -0.04714319
-0.9974377 0.05374773 -0.04721381
-0.997877 0.04479623 -0.04727358
-0.9982364 0.03584121 -0.04732249
-0.998516 0.02688337 -0.04736053
-0.9987158 0.01792342 -0.04738771
-0.9988356 0.008962064 -0.04740402
-0.9988755 -3.075623e-12 -0.04740946
-0.9988356 -0.008962064 -0.04740402
-0.9987158 -0.01792342 -0.04738771
-0.998516 -0.02688337 -0.04736053
-0.9982364 -0.03584121 -0.04732249
-0.997877 -0.04479623 -0.04727358
-0.9974377 -0.05374773 -0.04721381
-0.9969187 -0.062695 -0.04714319
-0.9963199 -0.07163734 -0.04706172
-0.9956413 -0.08057405 -0.04696941
-0.9948832 -0.08950443 -0.04686627
-0.9940454 -0.09842776 -0.04675232
-0.993128 -0.1073434 -0.04662755
-0.9921312 -0.1162505 -0.04649199
-0.991055 -0.1251485 -0.04634564
-0.9898994 -0.1340367 -0.04618853
-0.9886646 -0.1429143 -0.04602066
-0.9873506 -0.1517807 -0.04584205
-0.9859575 -0.1606351 -0.04565272
-0.9844855 -0.1694769 -0.0454527
-0.9829346 -0.1783054 -0.04524198
-0.9813049 -0.1871198 -0.04502061
-0.9795966 -0.1959195 -0.04478859
-0.9778098 -0.2047037 -0.04454596
-0.9759446 -0.2134718 -0.04429273
-0.9740012 -0.2222232 -0.04402894
-0.9719796 -0.230957 -0.04375459
-0.9698801 -0.2396726 -0.04346973
-0.9677028 -0.2483693 -0.04317438
-0.9654478 -0.2570465 -0.04286857
-0.9631153 -0.2657034 -0.04255233
-0.9607054 -0.2743393 -0.04222569
-0.9582184 -0.2829536 -0.04188868
-0.9556545 -0.2915456 -0.04154133