# vtk DataFile Version 2.0
Written badly by Kevin Korner
ASCII
DATASET POLYDATA
POINTS 350 FLOAT
0 0 0
0.00286533 0 0
0.005729512 -2.614567e-05 7.674177e-05
0.008590228 -7.641567e-05 0.0002312981
0.01144513 -0.0001487083 0.0004645978
0.01429184 -0.0002408472 0.0007774195
0.01712797 -0.0003505869 0.001170386
0.01995113 -0.0004756197 0.00164396
0.02275891 -0.0006135824 0.00219844
0.02554892 -0.0007620636 0.002833957
0.0283188 -0.0009186111 0.003550472
0.03106619 -0.00108074 0.004347774
0.03378877 -0.001245942 0.005225481
0.03648427 -0.001411692 0.006183037
0.03915046 -0.001575456 0.007219718
0.04178518 -0.001734704 0.008334629
0.04438631 -0.001886914 0.009526711
0.04695182 -0.002029582 0.01079474
0.04947976 -0.002160231 0.01213734
0.05196825 -0.00227642 0.01355298
0.05441552 -0.00237575 0.01503997
0.05681986 -0.002455873 0.01659651
0.05917971 -0.0025145 0.01822064
0.06149357 -0.002549406 0.0199103
0.06376007 -0.002558438 0.02166329
0.06597796 -0.002539522 0.02347733
0.06814608 -0.002490667 0.02535002
0.07026341 -0.002409971 0.02727889
0.07232902 -0.002295624 0.02926139
0.07434211 -0.002145915 0.0312949
0.07630201 -0.001959231 0.03337674
0.07820815 -0.001734066 0.03550419
0.08006008 -0.001469016 0.03767449
0.08185746 -0.001162785 0.03988487
0.08360007 -0.000814187 0.04213251
0.08528779 -0.000422142 0.04441462
0.08692061 1.432013e-05 0.04672838
0.08849863 0.0004960617 0.04907101
0.09002203 0.001023838 0.05143973
0.09149109 0.001598299 0.05383179
0.0929062 0.002219992 0.05624448
0.09426781 0.002889362 0.05867513
0.09557646 0.003606756 0.06112113
0.09683277 0.004372425 0.0635799
0.09803742 0.005186529 0.06604894
0.09919117 0.006049139 0.06852581
0.1002948 0.00696024 0.07100814
0.1013493 0.007919737 0.07349362
0.1023554 0.008927458 0.07598005
0.1033142 0.009983158 0.07846528
0.1042266 0.01108652 0.08094724
0.1050937 0.01223718 0.08342397
0.1059167 0.01343468 0.08589357
0.1066964 0.01467853 0.08835424
0.1074342 0.0159682 0.09080426
0.1081311 0.01730308 0.093242
0.1087882 0.01868255 0.09566591
0.1094068 0.02010592 0.09807454
0.1099879 0.02157249 0.1004665
0.1105329 0.02308151 0.1028405
0.1110427 0.02463222 0.1051954
0.1115187 0.02622382 0.10753
0.1119619 0.02785549 0.1098433
0.1123735 0.0295264 0.1121343
0.1127547 0.03123571 0.1144022
0.1131066 0.03298256 0.116646
0.1134303 0.03476608 0.1188651
0.1137268 0.03658539 0.1210588
0.1139974 0.03843962 0.1232265
0.114243 0.04032788 0.1253675
0.1144646 0.04224931 0.1274816
0.1146634 0.04420301 0.1295681
0.1148402 0.04618812 0.1316268
0.1149961 0.04820376 0.1336573
0.115132 0.05024909 0.1356594
0.1152488 0.05232324 0.1376328
0.1153475 0.05442539 0.1395774
0.1154288 0.05655469 0.141493
0.1154938 0.05871032 0.1433795
0.1155431 0.06089149 0.145237
0.1155775 0.06309741 0.1470654
0.1155979 0.06532729 0.1488646
0.115605 0.06758037 0.1506348
0.1155995 0.06985591 0.1523761
0.1155821 0.07215317 0.1540885
0.1155535 0.07447145 0.1557722
0.1155142 0.07681005 0.1574274
0.1154651 0.07916828 0.1590542
0.1154065 0.08154548 0.1606528
0.1153392 0.08394101 0.1622235
0.1152636 0.08635423 0.1637665
0.1151804 0.08878454 0.165282
0.1150899 0.09123133 0.1667703
0.1149928 0.09369404 0.1682317
0.1148894 0.09617209 0.1696665
0.1147802 0.09866495 0.171075
0.1146657 0.1011721 0.1724575
0.1145462 0.103693 0.1738143
0.1144221 0.1062272 0.1751457
0.1142939 0.1087741 0.1764521
0.1141618 0.1113334 0.1777338
0.1140263 0.1139046 0.1789911
0.1138876 0.1164872 0.1802244
0.113746 0.1190808 0.181434
0.1136019 0.1216851 0.1826203
0.1134555 0.1242995 0.1837836
0.1133071 0.1269239 0.1849242
0.113157 0.1295577 0.1860425
0.1130053 0.1322007 0.1871388
0.1128524 0.1348524 0.1882134
0.1126984 0.1375127 0.1892667
0.1125435 0.1401811 0.1902991
0.112388 0.1428573 0.1913108
0.112232 0.1455412 0.1923021
0.1120757 0.1482323 0.1932734
0.1119192 0.1509305 0.194225
0.1117629 0.1536354 0.1951572
0.1116066 0.1563469 0.1960703
0.1114508 0.1590646 0.1969645
0.1112953 0.1617885 0.1978401
0.1111405 0.1645181 0.1986975
0.1109864 0.1672534 0.1995369
0.1108331 0.1699941 0.2003585
0.1106808 0.1727401 0.2011625
0.1105295 0.1754911 0.2019493
0.1103794 0.1782471 0.2027191
0.1102305 0.1810077 0.203472
0.110083 0.1837729 0.2042083
0.1099369 0.1865424 0.2049282
0.1097924 0.1893162 0.2056319
0.1096494 0.1920942 0.2063195
0.1095082 0.1948761 0.2069913
0.1093687 0.1976618 0.2076473
0.109231 0.2004512 0.2082878
0.1090952 0.2032443 0.2089128
0.1089615 0.2060408 0.2095225
0.1088297 0.2088406 0.2101171
0.1087001 0.2116438 0.2106966
0.1085727 0.21445 0.2112611
0.1084476 0.2172594 0.2118107
0.1083248 0.2200717 0.2123455
0.1082043 0.2228868 0.2128655
0.1080863 0.2257048 0.2133708
0.1079709 0.2285254 0.2138615
0.107858 0.2313487 0.2143376
0.1077478 0.2341744 0.2147991
0.1076402 0.2370027 0.2152461
0.1075355 0.2398332 0.2156784
0.1074336 0.2426661 0.2160963
0.1073347 0.2455012 0.2164995
0.1072387 0.2483384 0.2168882
0.1071457 0.2511777 0.2172622
0.1070559 0.254019 0.2176216
0.1069693 0.2568622 0.2179662
0.1068859 0.2597073 0.2182962
0.1068058 0.2625541 0.2186113
0.1067292 0.2654026 0.2189115
0.106656 0.2682528 0.2191968
0.1065863 0.2711045 0.219467
0.1065203 0.2739577 0.2197221
0.1064579 0.2768122 0.219962
0.1063993 0.2796682 0.2201865
0.1063445 0.2825253 0.2203957
0.1062936 0.2853837 0.2205893
0.1062467 0.2882431 0.2207673
0.1062038 0.2911035 0.2209295
0.1061649 0.2939648 0.2210759
0.1061302 0.2968269 0.2212064
0.1060997 0.2996898 0.2213208
0.1060735 0.3025533 0.221419
0.1060515 0.3054174 0.2215011
0.1060339 0.3082819 0.2215668
0.1060207 0.3111468 0.2216161
0.1060118 0.3140119 0.2216491
0.1060074 0.3168772 0.2216655
0.1060074 0.3197426 0.2216655
0.1060118 0.3226078 0.2216491
0.1060207 0.325473 0.2216161
0.1060339 0.3283378 0.2215668
0.1060515 0.3312024 0.2215011
0.1060735 0.3340664 0.221419
0.1060997 0.3369299 0.2213208
0.1061302 0.3397928 0.2212064
0.1061649 0.342655 0.2210759
0.1062038 0.3455163 0.2209295
0.1062467 0.3483767 0.2207673
0.1062936 0.3512361 0.2205893
0.1063445 0.3540944 0.2203957
0.1063993 0.3569516 0.2201865
0.1064579 0.3598075 0.219962
0.1065203 0.3626621 0.2197221
0.1065863 0.3655153 0.219467
0.106656 0.368367 0.2191968
0.1067292 0.3712172 0.2189115
0.1068058 0.3740657 0.2186113
0.1068859 0.3769125 0.2182962
0.1069693 0.3797576 0.2179662
0.1070559 0.3826008 0.2176216
0.1071457 0.3854421 0.2172622
0.1072387 0.3882813 0.2168882
0.1073347 0.3911186 0.2164995
0.1074336 0.3939537 0.2160963
0.1075355 0.3967865 0.2156784
0.1076402 0.3996171 0.2152461
0.1077478 0.4024453 0.2147991
0.107858 0.4052711 0.2143376
0.1079709 0.4080943 0.2138615
0.1080863 0.410915 0.2133708
0.1082043 0.4137329 0.2128655
0.1083248 0.4165481 0.2123455
0.1084476 0.4193604 0.2118107
0.1085727 0.4221697 0.2112611
0.1087001 0.424976 0.2106966
0.1088297 0.4277791 0.2101171
0.1089615 0.430579 0.2095225
0.1090952 0.4333755 0.2089128
0.109231 0.4361685 0.2082878
0.1093687 0.438958 0.2076473
0.1095082 0.4417437 0.2069913
0.1096494 0.4445256 0.2063195
0.1097924 0.4473035 0.2056319
0.1099369 0.4500773 0.2049282
0.110083 0.4528469 0.2042083
0.1102305 0.4556121 0.203472
0.1103794 0.4583727 0.2027191
0.1105295 0.4611286 0.2019493
0.1106808 0.4638797 0.2011625
0.1108331 0.4666256 0.2003585
0.1109864 0.4693664 0.1995369
0.1111405 0.4721017 0.1986975
0.1112953 0.4748313 0.1978401
0.1114508 0.4775551 0.1969645
0.1116066 0.4802729 0.1960703
0.1117629 0.4829844 0.1951572
0.1119192 0.4856893 0.194225
0.1120757 0.4883875 0.1932734
0.112232 0.4910786 0.1923021
0.112388 0.4937624 0.1913108
0.1125435 0.4964387 0.1902991
0.1126984 0.4991071 0.1892667
0.1128524 0.5017674 0.1882134
0.1130053 0.5044191 0.1871388
0.113157 0.5070621 0.1860425
0.1133071 0.5096959 0.1849242
0.1134555 0.5123202 0.1837836
0.1136019 0.5149347 0.1826203
0.113746 0.517539 0.181434
0.1138876 0.5201326 0.1802244
0.1140263 0.5227152 0.1789911
0.1141618 0.5252864 0.1777338
0.1142939 0.5278457 0.1764521
0.1144221 0.5303926 0.1751457
0.1145462 0.5329268 0.1738143
0.1146657 0.5354477 0.1724575
0.1147802 0.5379548 0.171075
0.1148894 0.5404477 0.1696665
0.1149928 0.5429257 0.1682317
0.1150899 0.5453884 0.1667703
0.1151804 0.5478352 0.165282
0.1152636 0.5502655 0.1637665
0.1153392 0.5526788 0.1622235
0.1154065 0.5550743 0.1606528
0.1154651 0.5574515 0.1590542
0.1155142 0.5598097 0.1574274
0.1155535 0.5621483 0.1557722
0.1155821 0.5644666 0.1540885
0.1155995 0.5667639 0.1523761
0.115605 0.5690394 0.1506348
0.1155979 0.5712925 0.1488646
0.1155775 0.5735224 0.1470654
0.1155431 0.5757283 0.145237
0.1154938 0.5779094 0.1433795
0.1154288 0.5800651 0.141493
0.1153475 0.5821944 0.1395774
0.1152488 0.5842965 0.1376328
0.115132 0.5863707 0.1356594
0.1149961 0.588416 0.1336573
0.1148402 0.5904317 0.1316268
0.1146634 0.5924168 0.1295681
0.1144646 0.5943705 0.1274816
0.114243 0.5962919 0.1253675
0.1139974 0.5981802 0.1232265
0.1137268 0.6000344 0.1210588
0.1134303 0.6018537 0.1188651
0.1131066 0.6036372 0.116646
0.1127547 0.6053841 0.1144022
0.1123735 0.6070934 0.1121343
0.1119619 0.6087643 0.1098433
0.1115187 0.610396 0.10753
0.1110427 0.6119876 0.1051954
0.1105329 0.6135383 0.1028405
0.1099879 0.6150473 0.1004665
0.1094068 0.6165139 0.09807454
0.1087882 0.6179372 0.09566591
0.1081311 0.6193167 0.093242
0.1074342 0.6206516 0.09080426
0.1066964 0.6219412 0.08835424
0.1059167 0.6231851 0.08589357
0.1050937 0.6243826 0.08342397
0.1042266 0.6255332 0.08094724
0.1033142 0.6266366 0.07846528
0.1023554 0.6276923 0.07598005
0.1013493 0.6287 0.07349362
0.1002948 0.6296595 0.07100814
0.09919117 0.6305706 0.06852581
0.09803742 0.6314332 0.06604894
0.09683277 0.6322473 0.0635799
0.09557646 0.633013 0.06112113
0.09426781 0.6337304 0.05867513
0.0929062 0.6343998 0.05624448
0.09149109 0.6350215 0.05383179
0.09002203 0.6355959 0.05143973
0.08849863 0.6361237 0.04907101
0.08692061 0.6366055 0.04672838
0.08528779 0.6370419 0.04441462
0.08360007 0.637434 0.04213251
0.08185746 0.6377826 0.03988487
0.08006008 0.6380888 0.03767449
0.07820815 0.6383538 0.03550419
0.07630201 0.638579 0.03337674
0.07434211 0.6387657 0.0312949
0.07232902 0.6389154 0.02926139
0.07026341 0.6390297 0.02727889
0.06814608 0.6391104 0.02535002
0.06597796 0.6391593 0.02347733
0.06376007 0.6391782 0.02166329
0.06149357 0.6391692 0.0199103
0.05917971 0.6391343 0.01822064
0.05681986 0.6390756 0.01659651
0.05441552 0.6389955 0.01503997
0.05196825 0.6388962 0.01355298
0.04947976 0.63878 0.01213734
0.04695182 0.6386494 0.01079474
0.04438631 0.6385067 0.009526711
0.04178518 0.6383545 0.008334629
0.03915046 0.6381952 0.007219718
0.03648427 0.6380315 0.006183037
0.03378877 0.6378657 0.005225481
0.03106619 0.6377005 0.004347774
0.0283188 0.6375384 0.003550472
0.02554892 0.6373818 0.002833958
0.02275891 0.6372334 0.00219844
0.01995113 0.6370954 0.00164396
0.01712797 0.6369704 0.001170386
0.01429184 0.6368606 0.0007774195
0.01144513 0.6367685 0.0004645978
0.008590228 0.6366962 0.0002312981
0.005729512 0.6366459 7.674177e-05
0.00286533 0.6366198 0
0 0.6366198 0

LINES 349 1047
2 0 1
2 1 2
2 2 3
2 3 4
2 4 5
2 5 6
2 6 7
2 7 8
2 8 9
2 9 10
2 10 11
2 11 12
2 12 13
2 13 14
2 14 15
2 15 16
2 16 17
2 17 18
2 18 19
2 19 20
2 20 21
2 21 22
2 22 23
2 23 24
2 24 25
2 25 26
2 26 27
2 27 28
2 28 29
2 29 30
2 30 31
2 31 32
2 32 33
2 33 34
2 34 35
2 35 36
2 36 37
2 37 38
2 38 39
2 39 40
2 40 41
2 41 42
2 42 43
2 43 44
2 44 45
2 45 46
2 46 47
2 47 48
2 48 49
2 49 50
2 50 51
2 51 52
2 52 53
2 53 54
2 54 55
2 55 56
2 56 57
2 57 58
2 58 59
2 59 60
2 60 61
2 61 62
2 62 63
2 63 64
2 64 65
2 65 66
2 66 67
2 67 68
2 68 69
2 69 70
2 70 71
2 71 72
2 72 73
2 73 74
2 74 75
2 75 76
2 76 77
2 77 78
2 78 79
2 79 80
2 80 81
2 81 82
2 82 83
2 83 84
2 84 85
2 85 86
2 86 87
2 87 88
2 88 89
2 89 90
2 90 91
2 91 92
2 92 93
2 93 94
2 94 95
2 95 96
2 96 97
2 97 98
2 98 99
2 99 100
2 100 101
2 101 102
2 102 103
2 103 104
2 104 105
2 105 106
2 106 107
2 107 108
2 108 109
2 109 110
2 110 111
2 111 112
2 112 113
2 113 114
2 114 115
2 115 116
2 116 117
2 117 118
2 118 119
2 119 120
2 120 121
2 121 122
2 122 123
2 123 124
2 124 125
2 125 126
2 126 127
2 127 128
2 128 129
2 129 130
2 130 131
2 131 132
2 132 133
2 133 134
2 134 135
2 135 136
2 136 137
2 137 138
2 138 139
2 139 140
2 140 141
2 141 142
2 142 143
2 143 144
2 144 145
2 145 146
2 146 147
2 147 148
2 148 149
2 149 150
2 150 151
2 151 152
2 152 153
2 153 154
2 154 155
2 155 156
2 156 157
2 157 158
2 158 159
2 159 160
2 160 161
2 161 162
2 162 163
2 163 164
2 164 165
2 165 166
2 166 167
2 167 168
2 168 169
2 169 170
2 170 171
2 171 172
2 172 173
2 173 174
2 174 175
2 175 176
2 176 177
2 177 178
2 178 179
2 179 180
2 180 181
2 181 182
2 182 183
2 183 184
2 184 185
2 185 186
2 186 187
2 187 188
2 188 189
2 189 190
2 190 191
2 191 192
2 192 193
2 193 194
2 194 195
2 195 196
2 196 197
2 197 198
2 198 199
2 199 200
2 200 201
2 201 202
2 202 203
2 203 204
2 204 205
2 205 206
2 206 207
2 207 208
2 208 209
2 209 210
2 210 211
2 211 212
2 212 213
2 213 214
2 214 215
2 215 216
2 216 217
2 217 218
2 218 219
2 219 220
2 220 221
2 221 222
2 222 223
2 223 224
2 224 225
2 225 226
2 226 227
2 227 228
2 228 229
2 229 230
2 230 231
2 231 232
2 232 233
2 233 234
2 234 235
2 235 236
2 236 237
2 237 238
2 238 239
2 239 240
2 240 241
2 241 242
2 242 243
2 243 244
2 244 245
2 245 246
2 246 247
2 247 248
2 248 249
2 249 250
2 250 251
2 251 252
2 252 253
2 253 254
2 254 255
2 255 256
2 256 257
2 257 258
2 258 259
2 259 260
2 260 261
2 261 262
2 262 263
2 263 264
2 264 265
2 265 266
2 266 267
2 267 268
2 268 269
2 269 270
2 270 271
2 271 272
2 272 273
2 273 274
2 274 275
2 275 276
2 276 277
2 277 278
2 278 279
2 279 280
2 280 281
2 281 282
2 282 283
2 283 284
2 284 285
2 285 286
2 286 287
2 287 288
2 288 289
2 289 290
2 290 291
2 291 292
2 292 293
2 293 294
2 294 295
2 295 296
2 296 297
2 297 298
2 298 299
2 299 300
2 300 301
2 301 302
2 302 303
2 303 304
2 304 305
2 305 306
2 306 307
2 307 308
2 308 309
2 309 310
2 310 311
2 311 312
2 312 313
2 313 314
2 314 315
2 315 316
2 316 317
2 317 318
2 318 319
2 319 320
2 320 321
2 321 322
2 322 323
2 323 324
2 324 325
2 325 326
2 326 327
2 327 328
2 328 329
2 329 330
2 330 331
2 331 332
2 332 333
2 333 334
2 334 335
2 335 336
2 336 337
2 337 338
2 338 339
2 339 340
2 340 341
2 341 342
2 342 343
2 343 344
2 344 345
2 345 346
2 346 347
2 347 348
2 348 349


POINT_DATA 350
SCALARS a FLOAT 1
LOOKUP_TABLE default
0.0005894628
0.0005894628
0.0005894628
0.0005894628
0.0005894628
0.0005894628
0.0005894628
0.0005894628
0.0005894628
0.0005894628
0.0005894628
0.0005894628
0.0005894628
0.0005894628
0.0005894628
0.0005894628
0.0005894628
0.0005894628
0.0005894628
0.0005894628
0.0005894628
0.0005894628
0.0005894628
0.0005894628
0.0005894628
0.0005894628
0.0005894628
0.0005894628
0.0005894628
0.0005894628
0.0005894628
0.0005894628
0.0005894628
0.0005894628
0.0005894628
0.0005894628
0.0005894628
0.0005894628
0.0005894628
0.0005894628
0.0005894628
0.0005894628
0.0005894628
0.0005894628
0.0005894628
0.0005894628
0.0005894628
0.0005894628
0.0005894628
0.0005894628
0.0005894628
0.0005894628
0.0005894628
0.0005894628
0.0005894628
0.0005894628
0.0005894628
0.0005894628
0.0005894628
0.0005894628
0.0005894628
0.0005894628
0.0005894628
0.0005894628
0.0005894628
0.0005894628
0.0005894628
0.0005894628
0.0005894628
0.0005894628
0.0005894628
0.0005894628
0.0005894628
0.0005894628
0.0005894628
0.0005894628
0.0005894628
0.0005894628
0.0005894628
0.0005894628
0.0005894628
0.0005894628
0.0005894628
0.0005894628
0.0005894628
0.0005894628
0.0005894628
0.0005894628
0.0005894628
0.0005894628
0.0005894628
0.0005894628
0.0005894628
0.0005894628
0.0005894628
0.0005894628
0.0005894628
0.0005894628
0.0005894628
0.0005894628
0.0005894628
0.0005894628
0.0005894628
0.0005894628
0.0005894628
0.0005894628
0.0005894628
0.0005894628
0.0005894628
0.0005894628
0.0005894628
0.0005894628
0.0005894628
0.0005894628
0.0005894628
0.0005894628
0.0005894628
0.0005894628
0.0005894628
0.0005894628
0.0005894628
0.0005894628
0.0005894628
0.0005894628
0.0005894628
0.0005894628
0.0005894628
0.0005894628
0.0005894628
0.0005894628
0.0005894628
0.0005894628
0.0005894628
0.0005894628
0.0005894628
0.0005894628
0.0005894628
0.0005894628
0.0005894628
0.0005894628
0.0005894628
0.0005894628
0.0005894628
0.0005894628
0.0005894628
0.0005894628
0.0005894628
0.0005894628
0.0005894628
0.0005894628
0.0005894628
0.0005894628
0.0005894628
0.0005894628
0.0005894628
0.0005894628
0.0005894628
0.0005894628
0.0005894628
0.0005894628
0.0005894628
0.0005894628
0.0005894628
0.0005894628
0.0005894628
0.0005894628
0.0005894628
0.0005894628
0.0005894628
0.0005894628
0.0005894628
0.0005894628
0.0005894628
0.0005894628
0.0005894628
0.0005894628
0.0005894628
0.0005894628
0.0005894628
0.0005894628
0.0005894628
0.0005894628
0.0005894628
0.0005894628
0.0005894628
0.0005894628
0.0005894628
0.0005894628
0.0005894628
0.0005894628
0.0005894628
0.0005894628
0.0005894628
0.0005894628
0.0005894628
0.0005894628
0.0005894628
0.0005894628
0.0005894628
0.0005894628
0.0005894628
0.0005894628
0.0005894628
0.0005894628
0.0005894628
0.0005894628
0.0005894628
0.0005894628
0.0005894628
0.0005894628
0.0005894628
0.0005894628
0.0005894628
0.0005894628
0.0005894628
0.0005894628
0.0005894628
0.0005894628
0.0005894628
0.0005894628
0.0005894628
0.0005894628
0.0005894628
0.0005894628
0.0005894628
0.0005894628
0.0005894628
0.0005894628
0.0005894628
0.0005894628
0.0005894628
0.0005894628
0.0005894628
0.0005894628
0.0005894628
0.0005894628
0.0005894628
0.0005894628
0.0005894628
0.0005894628
0.0005894628
0.0005894628
0.0005894628
0.0005894628
0.0005894628
0.0005894628
0.0005894628
0.0005894628
0.0005894628
0.0005894628
0.0005894628
0.0005894628
0.0005894628
0.0005894628
0.0005894628
0.0005894628
0.0005894628
0.0005894628
0.0005894628
0.0005894628
0.0005894628
0.0005894628
0.0005894628
0.0005894628
0.0005894628
0.0005894628
0.0005894628
0.0005894628
0.0005894628
0.0005894628
0.0005894628
0.0005894628
0.0005894628
0.0005894628
0.0005894628
0.0005894628
0.0005894628
0.0005894628
0.0005894628
0.0005894628
0.0005894628
0.0005894628
0.0005894628
0.0005894628
0.0005894628
0.0005894628
0.0005894628
0.0005894628
0.0005894628
0.0005894628
0.0005894628
0.0005894628
0.0005894628
0.0005894628
0.0005894628
0.0005894628
0.0005894628
0.0005894628
0.0005894628
0.0005894628
0.0005894628
0.0005894628
0.0005894628
0.0005894628
0.0005894628
0.0005894628
0.0005894628
0.0005894628
0.0005894628
0.0005894628
0.0005894628
0.0005894628
0.0005894628
0.0005894628
0.0005894628
0.0005894628
0.0005894628
0.0005894628
0.0005894628
0.0005894628
0.0005894628
0.0005894628
0.0005894628
0.0005894628
0.0005894628
0.0005894628
0.0005894628
0.0005894628
0.0005894628
0.0005894628
0.0005894628
0.0005894628
0.0005894628
0.0005894628
0.0005894628
0.0005894628
0.0005894628
0.0005894628
0.0005894628
0.0005894628
0.0005894628
0.0005894628
0.0005894628
0.0005894628
0.0005894628
0.0005894628
0.0005894628
0.0005894628
0.0005894628
0.0005894628


SCALARS b FLOAT 1
LOOKUP_TABLE default
0.04420971
0.04420971
0.04420971
0.04420971
0.04420971
0.04420971
0.04420971
0.04420971
0.04420971
0.04420971
0.04420971
0.04420971
0.04420971
0.04420971
0.04420971
0.04420971
0.04420971
0.04420971
0.04420971
0.04420971
0.04420971
0.04420971
0.04420971
0.04420971
0.04420971
0.04420971
0.04420971
0.04420971
0.04420971
0.04420971
0.04420971
0.04420971
0.04420971
0.04420971
0.04420971
0.04420971
0.04420971
0.04420971
0.04420971
0.04420971
0.04420971
0.04420971
0.04420971
0.04420971
0.04420971
0.04420971
0.04420971
0.04420971
0.04420971
0.04420971
0.04420971
0.04420971
0.04420971
0.04420971
0.04420971
0.04420971
0.04420971
0.04420971
0.04420971
0.04420971
0.04420971
0.04420971
0.04420971
0.04420971
0.04420971
0.04420971
0.04420971
0.04420971
0.04420971
0.04420971
0.04420971
0.04420971
0.04420971
0.04420971
0.04420971
0.04420971
0.04420971
0.04420971
0.04420971
0.04420971
0.04420971
0.04420971
0.04420971
0.04420971
0.04420971
0.04420971
0.04420971
0.04420971
0.04420971
0.04420971
0.04420971
0.04420971
0.04420971
0.04420971
0.04420971
0.04420971
0.04420971
0.04420971
0.04420971
0.04420971
0.04420971
0.04420971
0.04420971
0.04420971
0.04420971
0.04420971
0.04420971
0.04420971
0.04420971
0.04420971
0.04420971
0.04420971
0.04420971
0.04420971
0.04420971
0.04420971
0.04420971
0.04420971
0.04420971
0.04420971
0.04420971
0.04420971
0.04420971
0.04420971
0.04420971
0.04420971
0.04420971
0.04420971
0.04420971
0.04420971
0.04420971
0.04420971
0.04420971
0.04420971
0.04420971
0.04420971
0.04420971
0.04420971
0.04420971
0.04420971
0.04420971
0.04420971
0.04420971
0.04420971
0.04420971
0.04420971
0.04420971
0.04420971
0.04420971
0.04420971
0.04420971
0.04420971
0.04420971
0.04420971
0.04420971
0.04420971
0.04420971
0.04420971
0.04420971
0.04420971
0.04420971
0.04420971
0.04420971
0.04420971
0.04420971
0.04420971
0.04420971
0.04420971
0.04420971
0.04420971
0.04420971
0.04420971
0.04420971
0.04420971
0.04420971
0.04420971
0.04420971
0.04420971
0.04420971
0.04420971
0.04420971
0.04420971
0.04420971
0.04420971
0.04420971
0.04420971
0.04420971
0.04420971
0.04420971
0.04420971
0.04420971
0.04420971
0.04420971
0.04420971
0.04420971
0.04420971
0.04420971
0.04420971
0.04420971
0.04420971
0.04420971
0.04420971
0.04420971
0.04420971
0.04420971
0.04420971
0.04420971
0.04420971
0.04420971
0.04420971
0.04420971
0.04420971
0.04420971
0.04420971
0.04420971
0.04420971
0.04420971
0.04420971
0.04420971
0.04420971
0.04420971
0.04420971
0.04420971
0.04420971
0.04420971
0.04420971
0.04420971
0.04420971
0.04420971
0.04420971
0.04420971
0.04420971
0.04420971
0.04420971
0.04420971
0.04420971
0.04420971
0.04420971
0.04420971
0.04420971
0.04420971
0.04420971
0.04420971
0.04420971
0.04420971
0.04420971
0.04420971
0.04420971
0.04420971
0.04420971
0.04420971
0.04420971
0.04420971
0.04420971
0.04420971
0.04420971
0.04420971
0.04420971
0.04420971
0.04420971
0.04420971
0.04420971
0.04420971
0.04420971
0.04420971
0.04420971
0.04420971
0.04420971
0.04420971
0.04420971
0.04420971
0.04420971
0.04420971
0.04420971
0.04420971
0.04420971
0.04420971
0.04420971
0.04420971
0.04420971
0.04420971
0.04420971
0.04420971
0.04420971
0.04420971
0.04420971
0.04420971
0.04420971
0.04420971
0.04420971
0.04420971
0.04420971
0.04420971
0.04420971
0.04420971
0.04420971
0.04420971
0.04420971
0.04420971
0.04420971
0.04420971
0.04420971
0.04420971
0.04420971
0.04420971
0.04420971
0.04420971
0.04420971
0.04420971
0.04420971
0.04420971
0.04420971
0.04420971
0.04420971
0.04420971
0.04420971
0.04420971
0.04420971
0.04420971
0.04420971
0.04420971
0.04420971
0.04420971
0.04420971
0.04420971
0.04420971
0.04420971
0.04420971
0.04420971
0.04420971
0.04420971
0.04420971
0.04420971
0.04420971
0.04420971
0.04420971
0.04420971
0.04420971
0.04420971
0.04420971
0.04420971
0.04420971
0.04420971
0.04420971
0.04420971
0.04420971
0.04420971
0.04420971
0.04420971
0.04420971


VECTORS d1 FLOAT
0 -0.3354845 0.9420457
-0.02829188 -0.3091867 0.9505804
-0.05669976 -0.2822879 0.9576527
-0.08516695 -0.2548337 0.9632271
-0.1136355 -0.2268727 0.9672723
-0.1420464 -0.1984561 0.9697618
-0.17034 -0.1696373 0.9706737
-0.198456 -0.140472 0.9699912
-0.226334 -0.1110177 0.9677024
-0.253914 -0.08133354 0.9638011
-0.2811361 -0.05147995 0.9582861
-0.3079414 -0.02151841 0.9511619
-0.3342721 0.008488897 0.9424384
-0.3600716 0.03847938 0.9321308
-0.3852852 0.06839038 0.9202598
-0.4098601 0.09815949 0.9068514
-0.4337457 0.1277249 0.8919367
-0.4568939 0.1570256 0.8755518
-0.4792595 0.1860019 0.8577375
-0.5008 0.2145955 0.8385393
-0.5214762 0.24275 0.8180067
-0.5412522 0.270411 0.7961934
-0.5600955 0.2975264 0.7731566
-0.5779772 0.3240466 0.7489567
-0.5948721 0.3499249 0.7236572
-0.6107586 0.3751173 0.6973241
-0.625619 0.3995832 0.6700255
-0.6394391 0.4232849 0.6418314
-0.6522087 0.4461883 0.6128131
-0.663921 0.4682626 0.5830429
-0.6745732 0.4894805 0.5525937
-0.6841656 0.5098183 0.5215388
-0.6927022 0.5292556 0.4899511
-0.7001901 0.5477757 0.4579034
-0.7066397 0.5653653 0.4254674
-0.712064 0.5820144 0.3927137
-0.7164792 0.5977165 0.3597117
-0.719904 0.6124681 0.3265289
-0.7223592 0.6262689 0.2932311
-0.7238682 0.6391215 0.2598818
-0.7244561 0.6510315 0.2265423
-0.72415 0.6620069 0.1932712
-0.7229784 0.6720583 0.1601246
-0.7209713 0.6811988 0.1271559
-0.7181598 0.6894434 0.09441556
-0.7145762 0.6968091 0.06195101
-0.7102532 0.703315 0.0298068
-0.7052243 0.7089815 -0.001975528
-0.6995236 0.7138306 -0.0333575
-0.6931851 0.7178854 -0.06430362
-0.6862432 0.7211704 -0.09478142
-0.6787322 0.7237107 -0.1247613
-0.670686 0.7255326 -0.1542167
-0.6621385 0.7266625 -0.1831237
-0.6531229 0.7271277 -0.2114613
-0.643672 0.7269556 -0.2392109
-0.6338181 0.7261741 -0.2663567
-0.6235924 0.7248108 -0.2928854
-0.6130258 0.7228935 -0.3187857
-0.6021481 0.72045 -0.3440488
-0.590988 0.7175076 -0.368668
-0.5795736 0.7140935 -0.3926384
-0.5679318 0.7102344 -0.4159573
-0.5560886 0.7059567 -0.4386235
-0.5440689 0.701286 -0.4606375
-0.5318965 0.6962477 -0.4820013
-0.5195942 0.6908662 -0.5027183
-0.5071837 0.6851655 -0.5227934
-0.4946856 0.6791689 -0.5422322
-0.4821195 0.6728987 -0.561042
-0.469504 0.6663768 -0.5792305
-0.4568564 0.6596242 -0.5968066
-0.4441933 0.652661 -0.61378
-0.4315302 0.6455066 -0.630161
-0.4188816 0.6381798 -0.6459604
-0.406261 0.6306982 -0.6611896
-0.3936811 0.6230791 -0.6758607
-0.3811536 0.6153385 -0.6899858
-0.3686894 0.6074921 -0.7035776
-0.3562986 0.5995545 -0.716649
-0.3439905 0.5915396 -0.7292128
-0.3317736 0.5834609 -0.7412824
-0.3196557 0.5753306 -0.7528711
-0.3076439 0.5671608 -0.7639921
-0.2957445 0.5589624 -0.7746588
-0.2839635 0.550746 -0.7848845
-0.2723059 0.5425213 -0.7946824
-0.2607765 0.5342975 -0.8040658
-0.2493792 0.5260833 -0.8130476
-0.2381177 0.5178866 -0.8216407
-0.2269951 0.5097149 -0.8298578
-0.216014 0.501575 -0.8377114
-0.2051766 0.4934734 -0.8452139
-0.1944848 0.4854158 -0.8523774
-0.18394 0.4774077 -0.8592136
-0.1735432 0.469454 -0.8657342
-0.1632953 0.4615592 -0.8719505
-0.1531967 0.4537273 -0.8778737
-0.1432476 0.445962 -0.8835146
-0.1334479 0.4382665 -0.8888836
-0.1237973 0.4306437 -0.8939912
-0.1142953 0.4230962 -0.8988472
-0.1049411 0.415626 -0.9034613
-0.09573372 0.4082351 -0.9078431
-0.08667215 0.400925 -0.9120017
-0.0777551 0.393697 -0.9159459
-0.06898115 0.3865519 -0.9196843
-0.0603488 0.3794905 -0.9232253
-0.05185639 0.3725132 -0.9265769
-0.04350219 0.3656201 -0.929747
-0.03528438 0.3588111 -0.932743
-0.02720105 0.352086 -0.9355723
-0.01925026 0.3454442 -0.9382418
-0.01142999 0.3388849 -0.9407584
-0.003738192 0.3324072 -0.9431285
0.003827222 0.32601 -0.9453586
0.01126835 0.3196919 -0.9474545
0.0185873 0.3134514 -0.9494223
0.02578619 0.3072868 -0.9512675
0.03286711 0.3011963 -0.9529956
0.03983215 0.2951779 -0.9546117
0.04668337 0.2892294 -0.9561208
0.05342279 0.2833487 -0.9575278
0.06005238 0.2775332 -0.9588373
0.06657407 0.2717805 -0.9600538
0.07298972 0.2660879 -0.9611814
0.07930113 0.2604528 -0.9622243
0.08551002 0.2548722 -0.9631865
0.09161801 0.2493434 -0.9640716
0.09762666 0.2438633 -0.9648833
0.1035374 0.2384288 -0.965625
0.1093516 0.233037 -0.9663002
0.1150705 0.2276846 -0.9669118
0.1206951 0.2223684 -0.9674632
0.1262265 0.2170853 -0.967957
0.1316655 0.211832 -0.9683963
0.1370128 0.2066052 -0.9687836
0.1422691 0.2014018 -0.9691217
0.1474346 0.1962183 -0.9694129
0.1525097 0.1910516 -0.9696598
0.1574945 0.1858984 -0.9698646
0.1623888 0.1807555 -0.9700295
0.1671925 0.1756196 -0.9701569
0.171905 0.1704876 -0.9702488
0.1765258 0.1653563 -0.9703071
0.1810539 0.1602226 -0.9703341
0.1854883 0.1550834 -0.9703315
0.1898277 0.1499357 -0.9703014
0.1940706 0.1447764 -0.9702455
0.1982151 0.1396028 -0.9701659
0.2022591 0.1344118 -0.9700643
0.2062004 0.1292008 -0.9699425
0.2100363 0.123967 -0.9698025
0.2137637 0.1187078 -0.9696461
0.2173793 0.1134206 -0.9694751
0.2208795 0.1081031 -0.9692915
0.2242602 0.102753 -0.9690971
0.227517 0.09736816 -0.9688939
0.2306448 0.09194666 -0.968684
0.2336384 0.08648677 -0.9684695
0.236492 0.08098702 -0.9682524
0.2391992 0.0754462 -0.9680349
0.2417534 0.06986345 -0.9678194
0.2441472 0.06423831 -0.9676082
0.2463732 0.05857074 -0.9674036
0.2484232 0.05286124 -0.9672082
0.2502889 0.04711089 -0.9670243
0.2519619 0.0413214 -0.9668546
0.2534338 0.03549524 -0.9667013
0.2546962 0.02963559 -0.9665669
0.2557414 0.02374646 -0.9664536
0.2565624 0.01783258 -0.9663632
0.2571533 0.01189944 -0.9662974
0.2575098 0.005953078 -0.9662574
0.2576289 -8.962224e-10 -0.9662439
0.2575098 -0.00595308 -0.9662574
0.2571533 -0.01189944 -0.9662974
0.2565624 -0.01783258 -0.9663632
0.2557414 -0.02374646 -0.9664536
0.2546962 -0.0296356 -0.9665669
0.2534338 -0.03549524 -0.9667013
0.2519619 -0.04132141 -0.9668546
0.2502889 -0.04711089 -0.9670243
0.2484232 -0.05286124 -0.9672082
0.2463732 -0.05857074 -0.9674036
0.2441472 -0.06423831 -0.9676082
0.2417534 -0.06986345 -0.9678194
0.2391992 -0.0754462 -0.9680349
0.236492 -0.08098702 -0.9682524
0.2336384 -0.08648677 -0.9684695
0.2306448 -0.09194666 -0.968684
0.227517 -0.09736816 -0.9688939
0.2242602 -0.102753 -0.9690971
0.2208795 -0.1081031 -0.9692915
0.2173793 -0.1134206 -0.9694751
0.2137637 -0.1187078 -0.9696461
0.2100363 -0.123967 -0.9698025
0.2062004 -0.1292008 -0.9699425
0.2022591 -0.1344118 -0.9700643
0.1982151 -0.1396028 -0.9701659
0.1940706 -0.1447764 -0.9702455
0.1898277 -0.1499357 -0.9703014
0.1854883 -0.1550834 -0.9703315
0.1810539 -0.1602226 -0.9703341
0.1765258 -0.1653563 -0.9703071
0.171905 -0.1704876 -0.9702488
0.1671925 -0.1756196 -0.9701569
0.1623888 -0.1807555 -0.9700295
0.1574945 -0.1858984 -0.9698646
0.1525097 -0.1910516 -0.9696598
0.1474346 -0.1962183 -0.9694129
0.1422691 -0.2014018 -0.9691217
0.1370128 -0.2066052 -0.9687836
0.1316655 -0.211832 -0.9683963
0.1262265 -0.2170853 -0.967957
0.1206951 -0.2223684 -0.9674632
0.1150705 -0.2276846 -0.9669118
0.1093516 -0.233037 -0.9663002
0.1035374 -0.2384288 -0.965625
0.09762667 -0.2438633 -0.9648833
0.09161802 -0.2493434 -0.9640716
0.08551002 -0.2548722 -0.9631865
0.07930113 -0.2604528 -0.9622243
0.07298973 -0.2660879 -0.9611814
0.06657407 -0.2717805 -0.9600538
0.06005238 -0.2775332 -0.9588373
0.05342279 -0.2833487 -0.9575278
0.04668337 -0.2892294 -0.9561208
0.03983215 -0.2951779 -0.9546117
0.03286711 -0.3011963 -0.9529956
0.02578619 -0.3072868 -0.9512675