# vtk DataFile Version 2.0
Written badly by Kevin Korner
ASCII
DATASET POLYDATA
POINTS 350 FLOAT
0 0 0
0.00286533 0 0
0.005730537 2.611545e-05 4.16649e-06
0.008595378 7.834428e-05 1.244343e-05
0.01145961 0.0001566821 2.477467e-05
0.01432299 0.0002611221 4.110394e-05
0.01718527 0.0003916553 6.137484e-05
0.02004622 0.0005482702 8.553089e-05
0.02290558 0.0007309532 0.0001135155
0.02576312 0.0009396881 0.000145272
0.02861859 0.001174457 0.0001807437
0.03147176 0.001435238 0.0002198738
0.03432239 0.00172201 0.0002626053
0.03717022 0.002034747 0.0003088812
0.04001503 0.002373421 0.0003586447
0.04285657 0.002738003 0.0004118387
0.04569461 0.003128461 0.000468406
0.0485289 0.00354476 0.0005282896
0.05135922 0.003986863 0.0005914323
0.05418531 0.004454734 0.0006577769
0.05700695 0.004948329 0.0007272663
0.0598239 0.005467606 0.0007998433
0.06263592 0.00601252 0.0008754508
0.06544278 0.006583023 0.0009540315
0.06824425 0.007179065 0.001035528
0.07104008 0.007800594 0.001119884
0.07383006 0.008447557 0.001207042
0.07661394 0.009119896 0.001296944
0.07939149 0.009817553 0.001389534
0.08216249 0.01054047 0.001484755
0.08492671 0.01128858 0.00158255
0.08768391 0.01206182 0.001682862
0.09043386 0.01286012 0.001785634
0.09317635 0.01368342 0.00189081
0.09591114 0.01453163 0.001998332
0.09863801 0.0154047 0.002108145
0.1013567 0.01630254 0.002220191
0.1040671 0.01722508 0.002334415
0.1067688 0.01817224 0.00245076
0.1094618 0.01914393 0.00256917
0.1121457 0.02014007 0.00268959
0.1148203 0.02116058 0.002811962
0.1174855 0.02220536 0.002936231
0.1201409 0.02327434 0.003062343
0.1227865 0.02436741 0.00319024
0.1254219 0.02548448 0.003319868
0.128047 0.02662547 0.003451172
0.1306615 0.02779026 0.003584096
0.1332653 0.02897876 0.003718586
0.135858 0.03019088 0.003854587
0.1384396 0.0314265 0.003992045
0.1410097 0.03268552 0.004130904
0.1435683 0.03396783 0.004271112
0.146115 0.03527333 0.004412614
0.1486497 0.03660191 0.004555355
0.1511721 0.03795344 0.004699284
0.1536821 0.03932782 0.004844346
0.1561795 0.04072493 0.004990487
0.158664 0.04214465 0.005137657
0.1611355 0.04358687 0.005285801
0.1635937 0.04505145 0.005434867
0.1660385 0.04653828 0.005584803
0.1684696 0.04804723 0.005735556
0.1708869 0.04957818 0.005887077
0.1732902 0.05113099 0.006039312
0.1756793 0.05270553 0.00619221
0.1780539 0.05430167 0.006345722
0.1804139 0.05591928 0.006499795
0.1827591 0.05755823 0.00665438
0.1850894 0.05921836 0.006809426
0.1874045 0.06089956 0.006964884
0.1897042 0.06260166 0.007120705
0.1919883 0.06432454 0.007276838
0.1942568 0.06606805 0.007433235
0.1965093 0.06783204 0.007589847
0.1987458 0.06961636 0.007746627
0.200966 0.07142087 0.007903525
0.2031697 0.07324542 0.008060495
0.2053568 0.07508985 0.008217488
0.2075272 0.076954 0.008374459
0.2096806 0.07883774 0.008531359
0.2118168 0.08074089 0.008688144
0.2139357 0.0826633 0.008844766
0.2160372 0.08460482 0.00900118
0.218121 0.08656527 0.009157341
0.2201871 0.08854451 0.009313204
0.2222351 0.09054235 0.009468724
0.2242651 0.09255865 0.009623857
0.2262767 0.09459322 0.009778559
0.2282699 0.09664591 0.009932787
0.2302445 0.09871654 0.0100865
0.2322003 0.100805 0.01023965
0.2341372 0.102911 0.01039219
0.236055 0.1050344 0.0105441
0.2379536 0.1071751 0.01069531
0.2398328 0.1093328 0.0108458
0.2416926 0.1115075 0.01099552
0.2435326 0.1136989 0.01114443
0.2453529 0.1159068 0.0112925
0.2471531 0.1181311 0.01143967
0.2489333 0.1203715 0.01158592
0.2506933 0.122628 0.0117312
0.2524329 0.1249002 0.01187548
0.2541519 0.1271881 0.01201872
0.2558504 0.1294914 0.01216087
0.257528 0.13181 0.01230191
0.2591848 0.1341436 0.0124418
0.2608205 0.1364921 0.0125805
0.262435 0.1388552 0.01271797
0.2640283 0.1412328 0.01285418
0.2656001 0.1436248 0.0129891
0.2671504 0.1460308 0.01312269
0.268679 0.1484507 0.01325492
0.2701859 0.1508843 0.01338574
0.2716709 0.1533314 0.01351514
0.2731338 0.1557917 0.01364308
0.2745746 0.1582652 0.01376953
0.2759932 0.1607516 0.01389445
0.2773894 0.1632507 0.01401781
0.2787632 0.1657623 0.01413959
0.2801144 0.1682862 0.01425974
0.2814429 0.1708221 0.01437826
0.2827487 0.17337 0.01449509
0.2840315 0.1759295 0.01461023
0.2852914 0.1785004 0.01472363
0.2865283 0.1810827 0.01483527
0.2877419 0.1836759 0.01494512
0.2889323 0.1862801 0.01505316
0.2900994 0.1888948 0.01515936
0.291243 0.1915199 0.01526369
0.292363 0.1941553 0.01536614
0.2934595 0.1968006 0.01546666
0.2945322 0.1994557 0.01556525
0.2955812 0.2021204 0.01566188
0.2966062 0.2047944 0.01575652
0.2976074 0.2074776 0.01584915
0.2985845 0.2101696 0.01593975
0.2995375 0.2128704 0.0160283
0.3004663 0.2155796 0.01611478
0.3013709 0.2182971 0.01619916
0.3022511 0.2210227 0.01628143
0.303107 0.223756 0.01636157
0.3039384 0.2264969 0.01643956
0.3047453 0.2292453 0.01651537
0.3055276 0.2320008 0.016589
0.3062853 0.2347632 0.01666043
0.3070182 0.2375323 0.01672963
0.3077265 0.2403079 0.0167966
0.3084099 0.2430898 0.01686131
0.3090684 0.2458777 0.01692376
0.3097021 0.2486715 0.01698392
0.3103107 0.2514708 0.01704178
0.3108944 0.2542755 0.01709734
0.311453 0.2570853 0.01715057
0.3119866 0.2599001 0.01720147
0.3124949 0.2627196 0.01725002
0.3129781 0.2655435 0.01729621
0.3134361 0.2683716 0.01734004
0.3138689 0.2712038 0.01738148
0.3142763 0.2740397 0.01742054
0.3146585 0.2768792 0.0174572
0.3150153 0.279722 0.01749145
0.3153467 0.282568 0.01752329
0.3156527 0.2854167 0.01755271
0.3159333 0.2882682 0.0175797
0.3161885 0.291122 0.01760426
0.3164182 0.293978 0.01762637
0.3166225 0.296836 0.01764605
0.3168012 0.2996957 0.01766327
0.3169544 0.3025569 0.01767804
0.3170821 0.3054194 0.01769035
0.3171843 0.3082828 0.01770021
0.317261 0.3111471 0.0177076
0.3173121 0.314012 0.01771253
0.3173376 0.3168772 0.01771499
0.3173376 0.3197426 0.01771499
0.3173121 0.3226078 0.01771253
0.317261 0.3254726 0.0177076
0.3171843 0.3283369 0.01770021
0.3170821 0.3312004 0.01769035
0.3169544 0.3340629 0.01767804
0.3168012 0.3369241 0.01766327
0.3166225 0.3397838 0.01764605
0.3164182 0.3426417 0.01762637
0.3161885 0.3454978 0.01760426
0.3159333 0.3483516 0.0175797
0.3156527 0.351203 0.01755271
0.3153467 0.3540518 0.01752329
0.3150153 0.3568977 0.01749145
0.3146585 0.3597406 0.0174572
0.3142763 0.36258 0.01742054
0.3138689 0.365416 0.01738148
0.3134361 0.3682482 0.01734004
0.3129781 0.3710763 0.01729621
0.3124949 0.3739002 0.01725002
0.3119866 0.3767197 0.01720147
0.311453 0.3795344 0.01715057
0.3108944 0.3823443 0.01709734
0.3103107 0.385149 0.01704178
0.3097021 0.3879483 0.01698392
0.3090684 0.3907421 0.01692376
0.3084099 0.39353 0.01686131
0.3077265 0.3963119 0.0167966
0.3070182 0.3990875 0.01672963
0.3062853 0.4018566 0.01666043
0.3055276 0.404619 0.016589
0.3047453 0.4073745 0.01651537
0.3039384 0.4101228 0.01643956
0.303107 0.4128638 0.01636157
0.3022511 0.4155971 0.01628143
0.3013709 0.4183226 0.01619916
0.3004663 0.4210401 0.01611478
0.2995375 0.4237494 0.0160283
0.2985845 0.4264501 0.01593975
0.2976074 0.4291422 0.01584915
0.2966062 0.4318253 0.01575652
0.2955812 0.4344993 0.01566188
0.2945322 0.437164 0.01556525
0.2934595 0.4398191 0.01546666
0.292363 0.4424645 0.01536614
0.291243 0.4450998 0.01526369
0.2900994 0.447725 0.01515936
0.2889323 0.4503397 0.01505316
0.2877419 0.4529438 0.01494512
0.2865283 0.4555371 0.01483527
0.2852914 0.4581193 0.01472363
0.2840315 0.4606903 0.01461023
0.2827487 0.4632498 0.01449509
0.2814429 0.4657976 0.01437826
0.2801144 0.4683336 0.01425974
0.2787632 0.4708575 0.01413959
0.2773894 0.473369 0.01401781
0.2759932 0.4758681 0.01389445
0.2745746 0.4783545 0.01376953
0.2731338 0.480828 0.01364308
0.2716709 0.4832884 0.01351514
0.2701859 0.4857355 0.01338574
0.268679 0.4881691 0.01325492
0.2671504 0.490589 0.01312269
0.2656001 0.492995 0.0129891
0.2640283 0.4953869 0.01285418
0.262435 0.4977646 0.01271797
0.2608205 0.5001277 0.0125805
0.2591848 0.5024762 0.0124418
0.257528 0.5048098 0.01230191
0.2558504 0.5071283 0.01216087
0.2541519 0.5094317 0.01201872
0.2524329 0.5117195 0.01187548
0.2506933 0.5139918 0.0117312
0.2489333 0.5162482 0.01158592
0.2471531 0.5184887 0.01143967
0.2453529 0.520713 0.0112925
0.2435326 0.5229209 0.01114443
0.2416926 0.5251123 0.01099552
0.2398328 0.5272869 0.0108458
0.2379536 0.5294447 0.01069531
0.236055 0.5315854 0.0105441
0.2341372 0.5337088 0.01039219
0.2322003 0.5358148 0.01023965
0.2302445 0.5379032 0.0100865
0.2282699 0.5399739 0.009932787
0.2262767 0.5420266 0.009778559
0.2242651 0.5440611 0.009623857
0.2222351 0.5460774 0.009468724
0.2201871 0.5480753 0.009313204
0.218121 0.5500545 0.009157341
0.2160372 0.552015 0.00900118
0.2139357 0.5539565 0.008844766
0.2118168 0.5558789 0.008688144
0.2096806 0.557782 0.008531359
0.2075272 0.5596658 0.008374459
0.2053568 0.5615299 0.008217488
0.2031697 0.5633744 0.008060495
0.200966 0.5651989 0.007903525
0.1987458 0.5670034 0.007746627
0.1965093 0.5687877 0.007589847
0.1942568 0.5705517 0.007433235
0.1919883 0.5722952 0.007276838
0.1897042 0.5740181 0.007120705
0.1874045 0.5757202 0.006964884
0.1850894 0.5774014 0.006809426
0.1827591 0.5790615 0.00665438
0.1804139 0.5807005 0.006499795
0.1780539 0.5823181 0.006345722
0.1756793 0.5839142 0.00619221
0.1732902 0.5854888 0.006039312
0.1708869 0.5870416 0.005887077
0.1684696 0.5885725 0.005735556
0.1660385 0.5900815 0.005584803
0.1635937 0.5915683 0.005434867
0.1611355 0.5930329 0.005285801
0.158664 0.5944751 0.005137657
0.1561795 0.5958948 0.004990487
0.1536821 0.597292 0.004844346
0.1511721 0.5986663 0.004699284
0.1486497 0.6000179 0.004555355
0.146115 0.6013464 0.004412614
0.1435683 0.6026519 0.004271112
0.1410097 0.6039343 0.004130904
0.1384396 0.6051933 0.003992045
0.135858 0.6064289 0.003854587
0.1332653 0.607641 0.003718586
0.1306615 0.6088295 0.003584096
0.128047 0.6099943 0.003451172
0.1254219 0.6111353 0.003319868
0.1227865 0.6122524 0.00319024
0.1201409 0.6133454 0.003062343
0.1174855 0.6144144 0.002936231
0.1148203 0.6154592 0.002811962
0.1121457 0.6164797 0.00268959
0.1094618 0.6174758 0.00256917
0.1067688 0.6184475 0.00245076
0.1040671 0.6193947 0.002334415
0.1013567 0.6203172 0.002220191
0.09863801 0.6212151 0.002108145
0.09591114 0.6220881 0.001998332
0.09317635 0.6229364 0.00189081
0.09043386 0.6237597 0.001785634
0.08768391 0.624558 0.001682862
0.08492671 0.6253312 0.00158255
0.08216249 0.6260793 0.001484755
0.07939149 0.6268022 0.001389534
0.07661394 0.6274999 0.001296944
0.07383006 0.6281722 0.001207042
0.07104008 0.6288192 0.001119884
0.06824425 0.6294407 0.001035528
0.06544278 0.6300367 0.0009540315
0.06263592 0.6306073 0.0008754508
0.0598239 0.6311522 0.0007998433
0.05700695 0.6316714 0.0007272663
0.05418531 0.632165 0.0006577769
0.05135922 0.6326329 0.0005914323
0.0485289 0.633075 0.0005282896
0.04569461 0.6334913 0.000468406
0.04285657 0.6338818 0.0004118387
0.04001503 0.6342464 0.0003586447
0.03717022 0.634585 0.0003088812
0.03432239 0.6348978 0.0002626053
0.03147176 0.6351845 0.0002198738
0.02861859 0.6354453 0.0001807437
0.02576312 0.6356801 0.000145272
0.02290558 0.6358888 0.0001135155
0.02004622 0.6360715 8.553089e-05
0.01718527 0.6362281 6.137484e-05
0.01432299 0.6363587 4.110394e-05
0.01145961 0.6364631 2.477467e-05
0.008595378 0.6365414 1.244343e-05
0.005730537 0.6365937 4.16649e-06
0.00286533 0.6366198 0
0 0.6366198 0

LINES 349 1047
2 0 1
2 1 2
2 2 3
2 3 4
2 4 5
2 5 6
2 6 7
2 7 8
2 8 9
2 9 10
2 10 11
2 11 12
2 12 13
2 13 14
2 14 15
2 15 16
2 16 17
2 17 18
2 18 19
2 19 20
2 20 21
2 21 22
2 22 23
2 23 24
2 24 25
2 25 26
2 26 27
2 27 28
2 28 29
2 29 30
2 30 31
2 31 32
2 32 33
2 33 34
2 34 35
2 35 36
2 36 37
2 37 38
2 38 39
2 39 40
2 40 41
2 41 42
2 42 43
2 43 44
2 44 45
2 45 46
2 46 47
2 47 48
2 48 49
2 49 50
2 50 51
2 51 52
2 52 53
2 53 54
2 54 55
2 55 56
2 56 57
2 57 58
2 58 59
2 59 60
2 60 61
2 61 62
2 62 63
2 63 64
2 64 65
2 65 66
2 66 67
2 67 68
2 68 69
2 69 70
2 70 71
2 71 72
2 72 73
2 73 74
2 74 75
2 75 76
2 76 77
2 77 78
2 78 79
2 79 80
2 80 81
2 81 82
2 82 83
2 83 84
2 84 85
2 85 86
2 86 87
2 87 88
2 88 89
2 89 90
2 90 91
2 91 92
2 92 93
2 93 94
2 94 95
2 95 96
2 96 97
2 97 98
2 98 99
2 99 100
2 100 101
2 101 102
2 102 103
2 103 104
2 104 105
2 105 106
2 106 107
2 107 108
2 108 109
2 109 110
2 110 111
2 111 112
2 112 113
2 113 114
2 114 115
2 115 116
2 116 117
2 117 118
2 118 119
2 119 120
2 120 121
2 121 122
2 122 123
2 123 124
2 124 125
2 125 126
2 126 127
2 127 128
2 128 129
2 129 130
2 130 131
2 131 132
2 132 133
2 133 134
2 134 135
2 135 136
2 136 137
2 137 138
2 138 139
2 139 140
2 140 141
2 141 142
2 142 143
2 143 144
2 144 145
2 145 146
2 146 147
2 147 148
2 148 149
2 149 150
2 150 151
2 151 152
2 152 153
2 153 154
2 154 155
2 155 156
2 156 157
2 157 158
2 158 159
2 159 160
2 160 161
2 161 162
2 162 163
2 163 164
2 164 165
2 165 166
2 166 167
2 167 168
2 168 169
2 169 170
2 170 171
2 171 172
2 172 173
2 173 174
2 174 175
2 175 176
2 176 177
2 177 178
2 178 179
2 179 180
2 180 181
2 181 182
2 182 183
2 183 184
2 184 185
2 185 186
2 186 187
2 187 188
2 188 189
2 189 190
2 190 191
2 191 192
2 192 193
2 193 194
2 194 195
2 195 196
2 196 197
2 197 198
2 198 199
2 199 200
2 200 201
2 201 202
2 202 203
2 203 204
2 204 205
2 205 206
2 206 207
2 207 208
2 208 209
2 209 210
2 210 211
2 211 212
2 212 213
2 213 214
2 214 215
2 215 216
2 216 217
2 217 218
2 218 219
2 219 220
2 220 221
2 221 222
2 222 223
2 223 224
2 224 225
2 225 226
2 226 227
2 227 228
2 228 229
2 229 230
2 230 231
2 231 232
2 232 233
2 233 234
2 234 235
2 235 236
2 236 237
2 237 238
2 238 239
2 239 240
2 240 241
2 241 242
2 242 243
2 243 244
2 244 245
2 245 246
2 246 247
2 247 248
2 248 249
2 249 250
2 250 251
2 251 252
2 252 253
2 253 254
2 254 255
2 255 256
2 256 257
2 257 258
2 258 259
2 259 260
2 260 261
2 261 262
2 262 263
2 263 264
2 264 265
2 265 266
2 266 267
2 267 268
2 268 269
2 269 270
2 270 271
2 271 272
2 272 273
2 273 274
2 274 275
2 275 276
2 276 277
2 277 278
2 278 279
2 279 280
2 280 281
2 281 282
2 282 283
2 283 284
2 284 285
2 285 286
2 286 287
2 287 288
2 288 289
2 289 290
2 290 291
2 291 292
2 292 293
2 293 294
2 294 295
2 295 296
2 296 297
2 297 298
2 298 299
2 299 300
2 300 301
2 301 302
2 302 303
2 303 304
2 304 305
2 305 306
2 306 307
2 307 308
2 308 309
2 309 310
2 310 311
2 311 312
2 312 313
2 313 314
2 314 315
2 315 316
2 316 317
2 317 318
2 318 319
2 319 320
2 320 321
2 321 322
2 322 323
2 323 324
2 324 325
2 325 326
2 326 327
2 327 328
2 328 329
2 329 330
2 330 331
2 331 332
2 332 333
2 333 334
2 334 335
2 335 336
2 336 337
2 337 338
2 338 339
2 339 340
2 340 341
2 341 342
2 342 343
2 343 344
2 344 345
2 345 346
2 346 347
2 347 348
2 348 349


POINT_DATA 350
SCALARS a FLOAT 1
LOOKUP_TABLE default
0.0005894628
0.0005894628
0.0005894628
0.0005894628
0.0005894628
0.0005894628
0.0005894628
0.0005894628
0.0005894628
0.0005894628
0.0005894628
0.0005894628
0.0005894628
0.0005894628
0.0005894628
0.0005894628
0.0005894628
0.0005894628
0.0005894628
0.0005894628
0.0005894628
0.0005894628
0.0005894628
0.0005894628
0.0005894628
0.0005894628
0.0005894628
0.0005894628
0.0005894628
0.0005894628
0.0005894628
0.0005894628
0.0005894628
0.0005894628
0.0005894628
0.0005894628
0.0005894628
0.0005894628
0.0005894628
0.0005894628
0.0005894628
0.0005894628
0.0005894628
0.0005894628
0.0005894628
0.0005894628
0.0005894628
0.0005894628
0.0005894628
0.0005894628
0.0005894628
0.0005894628
0.0005894628
0.0005894628
0.0005894628
0.0005894628
0.0005894628
0.0005894628
0.0005894628
0.0005894628
0.0005894628
0.0005894628
0.0005894628
0.0005894628
0.0005894628
0.0005894628
0.0005894628
0.0005894628
0.0005894628
0.0005894628
0.0005894628
0.0005894628
0.0005894628
0.0005894628
0.0005894628
0.0005894628
0.0005894628
0.0005894628
0.0005894628
0.0005894628
0.0005894628
0.0005894628
0.0005894628
0.0005894628
0.0005894628
0.0005894628
0.0005894628
0.0005894628
0.0005894628
0.0005894628
0.0005894628
0.0005894628
0.0005894628
0.0005894628
0.0005894628
0.0005894628
0.0005894628
0.0005894628
0.0005894628
0.0005894628
0.0005894628
0.0005894628
0.0005894628
0.0005894628
0.0005894628
0.0005894628
0.0005894628
0.0005894628
0.0005894628
0.0005894628
0.0005894628
0.0005894628
0.0005894628
0.0005894628
0.0005894628
0.0005894628
0.0005894628
0.0005894628
0.0005894628
0.0005894628
0.0005894628
0.0005894628
0.0005894628
0.0005894628
0.0005894628
0.0005894628
0.0005894628
0.0005894628
0.0005894628
0.0005894628
0.0005894628
0.0005894628
0.0005894628
0.0005894628
0.0005894628
0.0005894628
0.0005894628
0.0005894628
0.0005894628
0.0005894628
0.0005894628
0.0005894628
0.0005894628
0.0005894628
0.0005894628
0.0005894628
0.0005894628
0.0005894628
0.0005894628
0.0005894628
0.0005894628
0.0005894628
0.0005894628
0.0005894628
0.0005894628
0.0005894628
0.0005894628
0.0005894628
0.0005894628
0.0005894628
0.0005894628
0.0005894628
0.0005894628
0.0005894628
0.0005894628
0.0005894628
0.0005894628
0.0005894628
0.0005894628
0.0005894628
0.0005894628
0.0005894628
0.0005894628
0.0005894628
0.0005894628
0.0005894628
0.0005894628
0.0005894628
0.0005894628
0.0005894628
0.0005894628
0.0005894628
0.0005894628
0.0005894628
0.0005894628
0.0005894628
0.0005894628
0.0005894628
0.0005894628
0.0005894628
0.0005894628
0.0005894628
0.0005894628
0.0005894628
0.0005894628
0.0005894628
0.0005894628
0.0005894628
0.0005894628
0.0005894628
0.0005894628
0.0005894628
0.0005894628
0.0005894628
0.0005894628
0.0005894628
0.0005894628
0.0005894628
0.0005894628
0.0005894628
0.0005894628
0.0005894628
0.0005894628
0.0005894628
0.0005894628
0.0005894628
0.0005894628
0.0005894628
0.0005894628
0.0005894628
0.0005894628
0.0005894628
0.0005894628
0.0005894628
0.0005894628
0.0005894628
0.0005894628
0.0005894628
0.0005894628
0.0005894628
0.0005894628
0.0005894628
0.0005894628
0.0005894628
0.0005894628
0.0005894628
0.0005894628
0.0005894628
0.0005894628
0.0005894628
0.0005894628
0.0005894628
0.0005894628
0.0005894628
0.0005894628
0.0005894628
0.0005894628
0.0005894628
0.0005894628
0.0005894628
0.0005894628
0.0005894628
0.0005894628
0.0005894628
0.0005894628
0.0005894628
0.0005894628
0.0005894628
0.0005894628
0.0005894628
0.0005894628
0.0005894628
0.0005894628
0.0005894628
0.0005894628
0.0005894628
0.0005894628
0.0005894628
0.0005894628
0.0005894628
0.0005894628
0.0005894628
0.0005894628
0.0005894628
0.0005894628
0.0005894628
0.0005894628
0.0005894628
0.0005894628
0.0005894628
0.0005894628
0.0005894628
0.0005894628
0.0005894628
0.0005894628
0.0005894628
0.0005894628
0.0005894628
0.0005894628
0.0005894628
0.0005894628
0.0005894628
0.0005894628
0.0005894628
0.0005894628
0.0005894628
0.0005894628
0.0005894628
0.0005894628
0.0005894628
0.0005894628
0.0005894628
0.0005894628
0.0005894628
0.0005894628
0.0005894628
0.0005894628
0.0005894628
0.0005894628
0.0005894628
0.0005894628
0.0005894628
0.0005894628
0.0005894628
0.0005894628
0.0005894628
0.0005894628
0.0005894628
0.0005894628
0.0005894628
0.0005894628
0.0005894628
0.0005894628
0.0005894628
0.0005894628
0.0005894628
0.0005894628
0.0005894628
0.0005894628
0.0005894628
0.0005894628
0.0005894628
0.0005894628
0.0005894628
0.0005894628
0.0005894628
0.0005894628
0.0005894628
0.0005894628
0.0005894628
0.0005894628
0.0005894628
0.0005894628
0.0005894628
0.0005894628
0.0005894628
0.0005894628
0.0005894628
0.0005894628
0.0005894628


SCALARS b FLOAT 1
LOOKUP_TABLE default
0.04420971
0.04420971
0.04420971
0.04420971
0.04420971
0.04420971
0.04420971
0.04420971
0.04420971
0.04420971
0.04420971
0.04420971
0.04420971
0.04420971
0.04420971
0.04420971
0.04420971
0.04420971
0.04420971
0.04420971
0.04420971
0.04420971
0.04420971
0.04420971
0.04420971
0.04420971
0.04420971
0.04420971
0.04420971
0.04420971
0.04420971
0.04420971
0.04420971
0.04420971
0.04420971
0.04420971
0.04420971
0.04420971
0.04420971
0.04420971
0.04420971
0.04420971
0.04420971
0.04420971
0.04420971
0.04420971
0.04420971
0.04420971
0.04420971
0.04420971
0.04420971
0.04420971
0.04420971
0.04420971
0.04420971
0.04420971
0.04420971
0.04420971
0.04420971
0.04420971
0.04420971
0.04420971
0.04420971
0.04420971
0.04420971
0.04420971
0.04420971
0.04420971
0.04420971
0.04420971
0.04420971
0.04420971
0.04420971
0.04420971
0.04420971
0.04420971
0.04420971
0.04420971
0.04420971
0.04420971
0.04420971
0.04420971
0.04420971
0.04420971
0.04420971
0.04420971
0.04420971
0.04420971
0.04420971
0.04420971
0.04420971
0.04420971
0.04420971
0.04420971
0.04420971
0.04420971
0.04420971
0.04420971
0.04420971
0.04420971
0.04420971
0.04420971
0.04420971
0.04420971
0.04420971
0.04420971
0.04420971
0.04420971
0.04420971
0.04420971
0.04420971
0.04420971
0.04420971
0.04420971
0.04420971
0.04420971
0.04420971
0.04420971
0.04420971
0.04420971
0.04420971
0.04420971
0.04420971
0.04420971
0.04420971
0.04420971
0.04420971
0.04420971
0.04420971
0.04420971
0.04420971
0.04420971
0.04420971
0.04420971
0.04420971
0.04420971
0.04420971
0.04420971
0.04420971
0.04420971
0.04420971
0.04420971
0.04420971
0.04420971
0.04420971
0.04420971
0.04420971
0.04420971
0.04420971
0.04420971
0.04420971
0.04420971
0.04420971
0.04420971
0.04420971
0.04420971
0.04420971
0.04420971
0.04420971
0.04420971
0.04420971
0.04420971
0.04420971
0.04420971
0.04420971
0.04420971
0.04420971
0.04420971
0.04420971
0.04420971
0.04420971
0.04420971
0.04420971
0.04420971
0.04420971
0.04420971
0.04420971
0.04420971
0.04420971
0.04420971
0.04420971
0.04420971
0.04420971
0.04420971
0.04420971
0.04420971
0.04420971
0.04420971
0.04420971
0.04420971
0.04420971
0.04420971
0.04420971
0.04420971
0.04420971
0.04420971
0.04420971
0.04420971
0.04420971
0.04420971
0.04420971
0.04420971
0.04420971
0.04420971
0.04420971
0.04420971
0.04420971
0.04420971
0.04420971
0.04420971
0.04420971
0.04420971
0.04420971
0.04420971
0.04420971
0.04420971
0.04420971
0.04420971
0.04420971
0.04420971
0.04420971
0.04420971
0.04420971
0.04420971
0.04420971
0.04420971
0.04420971
0.04420971
0.04420971
0.04420971
0.04420971
0.04420971
0.04420971
0.04420971
0.04420971
0.04420971
0.04420971
0.04420971
0.04420971
0.04420971
0.04420971
0.04420971
0.04420971
0.04420971
0.04420971
0.04420971
0.04420971
0.04420971
0.04420971
0.04420971
0.04420971
0.04420971
0.04420971
0.04420971
0.04420971
0.04420971
0.04420971
0.04420971
0.04420971
0.04420971
0.04420971
0.04420971
0.04420971
0.04420971
0.04420971
0.04420971
0.04420971
0.04420971
0.04420971
0.04420971
0.04420971
0.04420971
0.04420971
0.04420971
0.04420971
0.04420971
0.04420971
0.04420971
0.04420971
0.04420971
0.04420971
0.04420971
0.04420971
0.04420971
0.04420971
0.04420971
0.04420971
0.04420971
0.04420971
0.04420971
0.04420971
0.04420971
0.04420971
0.04420971
0.04420971
0.04420971
0.04420971
0.04420971
0.04420971
0.04420971
0.04420971
0.04420971
0.04420971
0.04420971
0.04420971
0.04420971
0.04420971
0.04420971
0.04420971
0.04420971
0.04420971
0.04420971
0.04420971
0.04420971
0.04420971
0.04420971
0.04420971
0.04420971
0.04420971
0.04420971
0.04420971
0.04420971
0.04420971
0.04420971
0.04420971
0.04420971
0.04420971
0.04420971
0.04420971
0.04420971
0.04420971
0.04420971
0.04420971
0.04420971
0.04420971
0.04420971
0.04420971
0.04420971
0.04420971
0.04420971
0.04420971
0.04420971
0.04420971
0.04420971
0.04420971
0.04420971
0.04420971
0.04420971
0.04420971
0.04420971


VECTORS d1 FLOAT
0 0.9873419 0.1586061
-0.009229553 0.9876283 0.156541
-0.01845529 0.9878252 0.1544696
-0.02767641 0.9879325 0.1523921
-0.03689208 0.9879505 0.1503089
-0.04610151 0.9878793 0.1482202
-0.05530389 0.9877189 0.1461262
-0.06449842 0.9874695 0.1440273
-0.0736843 0.9871313 0.1419237
-0.08286073 0.9867045 0.1398157
-0.09202692 0.986189 0.1377035
-0.1011821 0.9855852 0.1355874
-0.1103254 0.9848932 0.1334676
-0.1194562 0.9841132 0.1313445
-0.1285735 0.9832454 0.1292183
-0.1376767 0.9822899 0.1270892
-0.146765 0.981247 0.1249576
-0.1558375 0.9801168 0.1228236
-0.1648936 0.9788997 0.1206875
-0.1739324 0.9775958 0.1185497
-0.1829533 0.9762053 0.1164103
-0.1919554 0.9747285 0.1142697
-0.200938 0.9731656 0.112128
-0.2099003 0.9715169 0.1099856
-0.2188417 0.9697826 0.1078427
-0.2277613 0.967963 0.1056996
-0.2366584 0.9660584 0.1035564
-0.2455323 0.9640691 0.1014136
-0.2543823 0.9619952 0.09927126
-0.2632076 0.9598373 0.09712974
-0.2720075 0.9575954 0.09498926
-0.2807814 0.95527 0.09285008
-0.2895284 0.9528613 0.09071246
-0.2982478 0.9503696 0.08857664
-0.3069391 0.9477954 0.08644288
-0.3156014 0.9451388 0.08431143
-0.324234 0.9424003 0.08218255
-0.3328364 0.9395802 0.08005647
-0.3414077 0.9366788 0.07793346
-0.3499474 0.9336965 0.07581375
-0.3584546 0.9306336 0.07369759
-0.3669288 0.9274906 0.07158524
-0.3753693 0.9242677 0.06947693
-0.3837754 0.9209654 0.06737291
-0.3921465 0.9175841 0.06527342
-0.4004819 0.914124 0.06317871
-0.4087809 0.9105857 0.06108901
-0.4170429 0.9069695 0.05900456
-0.4252672 0.9032759 0.05692561
-0.4334533 0.8995051 0.05485239
-0.4416004 0.8956578 0.05278513
-0.449708 0.8917341 0.05072408
-0.4577754 0.8877347 0.04866946
-0.465802 0.8836599 0.04662152
-0.4737872 0.8795102 0.04458047
-0.4817304 0.875286 0.04254656
-0.489631 0.8709877 0.04052001
-0.4974883 0.8666158 0.03850104
-0.5053019 0.8621708 0.0364899
-0.513071 0.8576531 0.03448679
-0.5207951 0.8530632 0.03249195
-0.5284736 0.8484015 0.0305056
-0.536106 0.8436685 0.02852795
-0.5436917 0.8388647 0.02655924
-0.55123 0.8339906 0.02459968
-0.5587205 0.8290467 0.02264948
-0.5661626 0.8240334 0.02070886
-0.5735558 0.8189513 0.01877804
-0.5808994 0.8138008 0.01685723
-0.5881929 0.8085825 0.01494664
-0.5954359 0.8032969 0.01304649
-0.6026278 0.7979444 0.01115697
-0.609768 0.7925256 0.009278305
-0.6168561 0.7870411 0.00741069
-0.6238915 0.7814913 0.005554333
-0.6308736 0.7758767 0.003709436
-0.6378021 0.770198 0.001876201
-0.6446764 0.7644556 5.482719e-05
-0.651496 0.7586501 -0.001754488
-0.6582604 0.752782 -0.003551547
-0.6649691 0.7468518 -0.005336157
-0.6716216 0.7408602 -0.007108122
-0.6782176 0.7348077 -0.008867253
-0.6847564 0.7286947 -0.01061336
-0.6912377 0.722522 -0.01234625
-0.6976609 0.71629 -0.01406575
-0.7040257 0.7099994 -0.01577165
-0.7103315 0.7036506 -0.0174638
-0.7165779 0.6972443 -0.01914199
-0.7227646 0.6907811 -0.02080605
-0.7288909 0.6842614 -0.02245581
-0.7349566 0.677686 -0.02409108
-0.7409612 0.6710554 -0.02571169
-0.7469043 0.6643702 -0.02731748
-0.7527854 0.6576309 -0.02890826
-0.7586042 0.6508382 -0.03048387
-0.7643603 0.6439927 -0.03204414
-0.7700532 0.6370949 -0.03358891
-0.7756825 0.6301455 -0.03511801
-0.7812479 0.6231451 -0.03663129
-0.786749 0.6160943 -0.03812857
-0.7921854 0.6089937 -0.03960971
-0.7975568 0.6018439 -0.04107454
-0.8028627 0.5946455 -0.04252291
-0.8081028 0.5873992 -0.04395467
-0.8132768 0.5801055 -0.04536967
-0.8183843 0.5727652 -0.04676776
-0.8234249 0.5653788 -0.04814879
-0.8283983 0.5579469 -0.04951262
-0.8333042 0.5504702 -0.0508591
-0.8381423 0.5429493 -0.05218809
-0.8429121 0.5353849 -0.05349946
-0.8476135 0.5277775 -0.05479307
-0.852246 0.5201279 -0.05606878
-0.8568094 0.5124367 -0.05732646
-0.8613033 0.5047045 -0.05856597
-0.8657275 0.4969319 -0.05978719
-0.8700817 0.4891196 -0.06098999
-0.8743656 0.4812683 -0.06217425
-0.8785788 0.4733786 -0.06333984
-0.8827212 0.4654512 -0.06448664
-0.8867923 0.4574867 -0.06561454
-0.8907921 0.4494857 -0.06672341
-0.8947201 0.441449 -0.06781314
-0.8985762 0.4333772 -0.06888361
-0.9023601 0.4252709 -0.06993472
-0.9060715 0.4171309 -0.07096636
-0.9097102 0.4089577 -0.07197842
-0.913276 0.4007521 -0.07297079
-0.9167685 0.3925147 -0.07394338
-0.9201877 0.3842462 -0.07489608
-0.9235332 0.3759473 -0.0758288
-0.9268049 0.3676186 -0.07674143
-0.9300025 0.3592607 -0.07763389
-0.9331259 0.3508745 -0.07850608
-0.9361747 0.3424605 -0.07935791
-0.9391489 0.3340195 -0.08018929
-0.9420482 0.3255521 -0.08100015
-0.9448725 0.317059 -0.08179038
-0.9476215 0.3085408 -0.08255993
-0.950295 0.2999983 -0.0833087
-0.952893 0.2914321 -0.08403661
-0.9554153 0.282843 -0.0847436
-0.9578616 0.2742316 -0.08542959
-0.9602318 0.2655986 -0.08609451
-0.9625258 0.2569446 -0.08673829
-0.9647434 0.2482705 -0.08736087
-0.9668845 0.2395768 -0.08796218
-0.9689489 0.2308642 -0.08854216
-0.9709365 0.2221335 -0.08910076
-0.9728472 0.2133854 -0.0896379
-0.9746809 0.2046204 -0.09015355
-0.9764374 0.1958394 -0.09064764
-0.9781166 0.187043 -0.09112013
-0.9797184 0.1782319 -0.09157096
-0.9812427 0.1694069 -0.0920001
-0.9826895 0.1605685 -0.09240749
-0.9840586 0.1517175 -0.0927931
-0.9853499 0.1428546 -0.09315688
-0.9865633 0.1339805 -0.09349881
-0.9876989 0.1250959 -0.09381883
-0.9887564 0.1162015 -0.09411693
-0.9897359 0.107298 -0.09439307
-0.9906372 0.09838608 -0.09464722
-0.9914604 0.08946644 -0.09487936
-0.9922053 0.08053979 -0.09508946
-0.9928719 0.07160682 -0.09527751
-0.9934602 0.06266825 -0.09544347
-0.9939702 0.05372476 -0.09558735
-0.9944017 0.04477706 -0.09570911
-0.9947548 0.03582586 -0.09580875
-0.9950295 0.02687185 -0.09588626
-0.9952257 0.01791574 -0.09594163
-0.9953434 0.00895822 -0.09597485
-0.9953827 5.441701e-10 -0.09598593
-0.9953434 -0.008958219 -0.09597485
-0.9952257 -0.01791574 -0.09594163
-0.9950295 -0.02687185 -0.09588626
-0.9947548 -0.03582586 -0.09580875
-0.9944017 -0.04477706 -0.09570911
-0.9939702 -0.05372476 -0.09558735
-0.9934602 -0.06266825 -0.09544347
-0.9928719 -0.07160682 -0.09527751
-0.9922053 -0.08053979 -0.09508946
-0.9914604 -0.08946644 -0.09487936
-0.9906372 -0.09838608 -0.09464722
-0.9897359 -0.107298 -0.09439307
-0.9887564 -0.1162015 -0.09411693
-0.9876989 -0.1250959 -0.09381883
-0.9865633 -0.1339805 -0.09349881
-0.9853499 -0.1428546 -0.09315688
-0.9840586 -0.1517175 -0.0927931
-0.9826895 -0.1605685 -0.09240749
-0.9812427 -0.1694069 -0.0920001
-0.9797184 -0.1782319 -0.09157096
-0.9781166 -0.187043 -0.09112013
-0.9764374 -0.1958394 -0.09064764
-0.9746809 -0.2046204 -0.09015355
-0.9728472 -0.2133854 -0.0896379
-0.9709365 -0.2221335 -0.08910076
-0.9689489 -0.2308642 -0.08854216
-0.9668845 -0.2395768 -0.08796218
-0.9647434 -0.2482705 -0.08736087
-0.9625258 -0.2569446 -0.08673829
-0.9602318 -0.2655986 -0.08609451
-0.9578616 -0.2742316 -0.08542959
-0.9554153 -0.282843 -0.0847436
-0.952893 -0.2914321 -0.08403661
-0.950295 -0.2999983 -0.0833087
-0.9476215 -0.3085408 -0.08255993
-0.9448725 -0.317059 -0.08179038
-0.9420482 -0.3255521 -0.08100015
-0.9391489 -0.3340195 -0.08018929
-0.9361747 -0.3424605 -0.07935791
-0.9331259 -0.3508745 -0.07850608