# vtk DataFile Version 2.0
Written badly by Kevin Korner
ASCII
DATASET POLYDATA
POINTS 350 FLOAT
0 0 0
0.00286533 0 0
0.005726653 -0.0001360739 6.650381e-05
0.008575514 -0.0004092449 0.000206084
0.01140281 -0.0008196929 0.0004253237
0.01419881 -0.00136666 0.0007307353
0.01695327 -0.00204836 0.00112867
0.01965544 -0.002861899 0.001625221
0.02229419 -0.003803202 0.002226115
0.02485812 -0.004866965 0.002936605
0.02733568 -0.006046615 0.003761362
0.02971533 -0.007334299 0.004704356
0.03198568 -0.0087209 0.00576876
0.03413567 -0.01019607 0.006956846
0.03615472 -0.01174831 0.0082699
0.03803294 -0.01336504 0.009708152
0.03976126 -0.01503279 0.01127072
0.04133165 -0.01673725 0.0129556
0.04273719 -0.01846356 0.01475961
0.04397225 -0.02019641 0.01667845
0.04503259 -0.02192029 0.01870675
0.04591541 -0.02361974 0.0208381
0.04661941 -0.02527947 0.02306515
0.04714479 -0.02688469 0.02537975
0.04749325 -0.02842122 0.02777303
0.04766791 -0.02987569 0.03023557
0.04767326 -0.03123575 0.03275754
0.04751502 -0.03249015 0.03532884
0.04720004 -0.03362885 0.03793925
0.04673615 -0.03464314 0.04057859
0.04613199 -0.03552563 0.04323685
0.04539689 -0.03627029 0.04590428
0.04454064 -0.03687245 0.04857156
0.0435734 -0.03732873 0.05122982
0.04250551 -0.03763703 0.05387078
0.04134735 -0.0377964 0.05648677
0.04010924 -0.03780699 0.05907078
0.0388013 -0.03766994 0.06161648
0.03743333 -0.03738727 0.06411825
0.03601479 -0.03696176 0.06657117
0.03455467 -0.03639687 0.06897098
0.03306149 -0.03569661 0.07131409
0.03154322 -0.03486545 0.07359753
0.03000727 -0.03390822 0.07581895
0.0284605 -0.03283002 0.07797652
0.02690918 -0.03163614 0.08006893
0.02535901 -0.03033199 0.08209533
0.02381515 -0.02892304 0.08405529
0.02228221 -0.02741474 0.08594876
0.0207643 -0.0258125 0.08777602
0.01926501 -0.02412164 0.08953763
0.01778752 -0.02234736 0.09123441
0.01633453 -0.02049471 0.09286738
0.01490838 -0.01856855 0.09443777
0.01351103 -0.01657357 0.09594694
0.01214409 -0.01451426 0.09739636
0.01080888 -0.01239489 0.09878762
0.009506432 -0.01021954 0.1001224
0.008237529 -0.007992053 0.1014023
0.007002729 -0.00571608 0.1026293
0.005802387 -0.003395053 0.1038049
0.004636678 -0.001032205 0.104931
0.003505622 0.001369432 0.1060094
0.002409096 0.003807015 0.1070419
0.00134686 0.006277887 0.1080301
0.0003185648 0.008779563 0.1089758
-0.0006762258 0.01130973 0.1098807
-0.001638027 0.01386623 0.1107463
-0.002567418 0.01644706 0.1115744
-0.003465033 0.01905035 0.1123664
-0.004331552 0.02167437 0.1131238
-0.005167688 0.02431752 0.1138482
-0.005974185 0.02697831 0.114541
-0.006751807 0.02965536 0.1152034
-0.007501335 0.0323474 0.1158368
-0.008223558 0.03505325 0.1164426
-0.008919274 0.03777181 0.1170218
-0.009589279 0.0405021 0.1175756
-0.01023437 0.04324316 0.1181053
-0.01085534 0.04599416 0.1186118
-0.01145296 0.04875429 0.1190962
-0.01202802 0.05152283 0.1195594
-0.01258127 0.0542991 0.1200025
-0.01311346 0.05708249 0.1204264
-0.01362533 0.05987243 0.1208318
-0.01411759 0.06266838 0.1212196
-0.01459094 0.06546988 0.1215907
-0.01504607 0.06827647 0.1219457
-0.01548364 0.07108774 0.1222854
-0.0159043 0.07390331 0.1226105
-0.01630868 0.07672285 0.1229216
-0.01669739 0.07954602 0.1232194
-0.01707102 0.08237255 0.1235045
-0.01743014 0.08520215 0.1237774
-0.01777531 0.08803459 0.1240387
-0.01810706 0.09086963 0.124289
-0.0184259 0.09370706 0.1245286
-0.01873234 0.0965467 0.1247581
-0.01902686 0.09938836 0.1249779
-0.01930991 0.1022319 0.1251885
-0.01958196 0.1050771 0.1253903
-0.01984341 0.1079239 0.1255836
-0.0200947 0.1107722 0.1257689
-0.02033621 0.1136218 0.1259464
-0.02056832 0.1164727 0.1261166
-0.02079141 0.1193246 0.1262797
-0.02100583 0.1221776 0.1264361
-0.0212119 0.1250316 0.126586
-0.02140997 0.1278865 0.1267297
-0.02160033 0.1307422 0.1268676
-0.02178329 0.1335986 0.1269997
-0.02195913 0.1364557 0.1271265
-0.02212813 0.1393135 0.127248
-0.02229056 0.1421718 0.1273646
-0.02244665 0.1450307 0.1274765
-0.02259667 0.1478901 0.1275837
-0.02274083 0.1507499 0.1276866
-0.02287937 0.1536102 0.1277853
-0.02301249 0.1564709 0.1278799
-0.02314041 0.1593319 0.1279707
-0.02326331 0.1621933 0.1280578
-0.02338139 0.165055 0.1281414
-0.02349482 0.1679169 0.1282215
-0.02360378 0.1707791 0.1282984
-0.02370844 0.1736416 0.1283721
-0.02380896 0.1765043 0.1284428
-0.02390548 0.1793672 0.1285106
-0.02399816 0.1822303 0.1285756
-0.02408713 0.1850936 0.1286379
-0.02417253 0.187957 0.1286977
-0.02425449 0.1908206 0.128755
-0.02433314 0.1936843 0.1288098
-0.02440858 0.1965482 0.1288624
-0.02448094 0.1994121 0.1289128
-0.02455033 0.2022762 0.1289611
-0.02461685 0.2051404 0.1290073
-0.02468059 0.2080047 0.1290516
-0.02474166 0.210869 0.1290939
-0.02480015 0.2137335 0.1291345
-0.02485614 0.216598 0.1291732
-0.02490972 0.2194626 0.1292103
-0.02496097 0.2223273 0.1292457
-0.02500996 0.225192 0.1292795
-0.02505678 0.2280567 0.1293118
-0.02510149 0.2309215 0.1293426
-0.02514415 0.2337864 0.129372
-0.02518483 0.2366513 0.1294
-0.0252236 0.2395162 0.1294267
-0.02526051 0.2423812 0.1294521
-0.02529561 0.2452462 0.1294762
-0.02532896 0.2481113 0.1294991
-0.02536061 0.2509764 0.1295208
-0.0253906 0.2538415 0.1295413
-0.02541899 0.2567066 0.1295608
-0.02544581 0.2595717 0.1295792
-0.0254711 0.2624369 0.1295965
-0.0254949 0.2653021 0.1296128
-0.02551725 0.2681673 0.129628
-0.02553818 0.2710325 0.1296424
-0.02555772 0.2738977 0.1296557
-0.0255759 0.276763 0.1296681
-0.02559275 0.2796282 0.1296796
-0.02560829 0.2824935 0.1296902
-0.02562255 0.2853588 0.1297
-0.02563554 0.2882241 0.1297088
-0.0256473 0.2910894 0.1297169
-0.02565783 0.2939547 0.129724
-0.02566715 0.29682 0.1297304
-0.02567527 0.2996853 0.1297359
-0.02568221 0.3025506 0.1297407
-0.02568798 0.3054159 0.1297446
-0.02569259 0.3082812 0.1297477
-0.02569604 0.3111466 0.1297501
-0.02569833 0.3140119 0.1297516
-0.02569948 0.3168772 0.1297524
-0.02569948 0.3197426 0.1297524
-0.02569833 0.3226079 0.1297516
-0.02569604 0.3254732 0.1297501
-0.02569259 0.3283385 0.1297477
-0.02568798 0.3312039 0.1297446
-0.02568221 0.3340692 0.1297407
-0.02567527 0.3369345 0.1297359
-0.02566715 0.3397998 0.1297304
-0.02565783 0.3426651 0.129724
-0.0256473 0.3455304 0.1297169
-0.02563554 0.3483957 0.1297088
-0.02562255 0.351261 0.1297
-0.02560829 0.3541263 0.1296902
-0.02559275 0.3569915 0.1296796
-0.0255759 0.3598568 0.1296681
-0.02555772 0.362722 0.1296557
-0.02553818 0.3655873 0.1296424
-0.02551725 0.3684525 0.129628
-0.0254949 0.3713177 0.1296128
-0.0254711 0.3741829 0.1295965
-0.0254458 0.377048 0.1295792
-0.02541899 0.3799132 0.1295608
-0.0253906 0.3827783 0.1295413
-0.02536061 0.3856434 0.1295208
-0.02532896 0.3885085 0.1294991
-0.02529561 0.3913735 0.1294762
-0.02526051 0.3942385 0.1294521
-0.0252236 0.3971035 0.1294267
-0.02518483 0.3999685 0.1294
-0.02514415 0.4028334 0.129372
-0.02510149 0.4056982 0.1293426
-0.02505678 0.408563 0.1293118
-0.02500996 0.4114278 0.1292795
-0.02496097 0.4142925 0.1292457
-0.02490972 0.4171572 0.1292103
-0.02485614 0.4200218 0.1291732
-0.02480015 0.4228863 0.1291345
-0.02474166 0.4257507 0.1290939
-0.02468059 0.4286151 0.1290516
-0.02461684 0.4314794 0.1290073
-0.02455033 0.4343436 0.1289611
-0.02448094 0.4372076 0.1289128
-0.02440858 0.4400716 0.1288624
-0.02433314 0.4429355 0.1288098
-0.02425449 0.4457992 0.128755
-0.02417253 0.4486628 0.1286977
-0.02408713 0.4515262 0.1286379
-0.02399816 0.4543895 0.1285756
-0.02390548 0.4572526 0.1285106
-0.02380896 0.4601155 0.1284428
-0.02370844 0.4629782 0.1283721
-0.02360378 0.4658406 0.1282984
-0.02349482 0.4687029 0.1282215
-0.02338139 0.4715648 0.1281414
-0.02326331 0.4744265 0.1280578
-0.02314041 0.4772879 0.1279707
-0.02301249 0.4801489 0.1278799
-0.02287937 0.4830096 0.1277853
-0.02274083 0.4858698 0.1276866
-0.02259667 0.4887297 0.1275837
-0.02244665 0.4915891 0.1274765
-0.02229056 0.494448 0.1273646
-0.02212813 0.4973063 0.127248
-0.02195913 0.5001641 0.1271265
-0.02178329 0.5030212 0.1269997
-0.02160033 0.5058776 0.1268676
-0.02140996 0.5087333 0.1267297
-0.0212119 0.5115881 0.126586
-0.02100582 0.5144421 0.1264361
-0.02079141 0.5172951 0.1262797
-0.02056832 0.5201471 0.1261166
-0.02033621 0.5229979 0.1259464
-0.0200947 0.5258476 0.1257689
-0.01984341 0.5286958 0.1255836
-0.01958196 0.5315426 0.1253903
-0.01930991 0.5343879 0.1251885
-0.01902686 0.5372314 0.1249779
-0.01873234 0.5400731 0.1247581
-0.0184259 0.5429127 0.1245286
-0.01810706 0.5457501 0.124289
-0.01777531 0.5485852 0.1240387
-0.01743014 0.5514176 0.1237774
-0.01707102 0.5542472 0.1235045
-0.01669739 0.5570737 0.1232194
-0.01630868 0.5598969 0.1229216
-0.0159043 0.5627165 0.1226105
-0.01548364 0.565532 0.1222854
-0.01504607 0.5683433 0.1219457
-0.01459094 0.5711499 0.1215907
-0.01411759 0.5739514 0.1212196
-0.01362533 0.5767473 0.1208318
-0.01311346 0.5795373 0.1204264
-0.01258127 0.5823207 0.1200025
-0.01202802 0.5850969 0.1195594
-0.01145296 0.5878655 0.1190962
-0.01085534 0.5906256 0.1186118
-0.01023437 0.5933766 0.1181053
-0.009589279 0.5961177 0.1175756
-0.008919274 0.598848 0.1170218
-0.008223558 0.6015665 0.1164426
-0.007501334 0.6042724 0.1158368
-0.006751807 0.6069644 0.1152034
-0.005974184 0.6096415 0.114541
-0.005167688 0.6123023 0.1138482
-0.004331551 0.6149454 0.1131238
-0.003465033 0.6175694 0.1123664
-0.002567418 0.6201727 0.1115744
-0.001638027 0.6227535 0.1107463
-0.0006762255 0.62531 0.1098806
0.000318565 0.6278402 0.1089758
0.00134686 0.6303419 0.1080301
0.002409096 0.6328128 0.1070419
0.003505622 0.6352503 0.1060094
0.004636678 0.637652 0.104931
0.005802387 0.6400148 0.1038049
0.007002729 0.6423359 0.1026293
0.008237529 0.6446118 0.1014023
0.009506432 0.6468393 0.1001224
0.01080888 0.6490147 0.09878762
0.01214409 0.651134 0.09739636
0.01351103 0.6531933 0.09594694
0.01490838 0.6551883 0.09443777
0.01633453 0.6571145 0.09286738
0.01778752 0.6589671 0.0912344
0.01926501 0.6607414 0.08953763
0.0207643 0.6624323 0.08777602
0.02228221 0.6640345 0.08594876
0.02381515 0.6655428 0.08405529
0.02535901 0.6669518 0.08209533
0.02690918 0.6682559 0.08006893
0.0284605 0.6694498 0.07797652
0.03000727 0.670528 0.07581895
0.03154322 0.6714852 0.07359753
0.03306149 0.6723164 0.07131409
0.03455467 0.6730166 0.06897098
0.03601479 0.6735815 0.06657117
0.03743333 0.674007 0.06411825
0.0388013 0.6742897 0.06161648
0.04010924 0.6744268 0.05907078
0.04134735 0.6744162 0.05648677
0.04250551 0.6742568 0.05387078
0.0435734 0.6739485 0.05122982
0.04454064 0.6734922 0.04857156
0.04539689 0.6728901 0.04590428
0.04613199 0.6721454 0.04323685
0.04673615 0.6712629 0.04057859
0.04720004 0.6702486 0.03793925
0.04751502 0.6691099 0.03532884
0.04767326 0.6678555 0.03275754
0.04766791 0.6664955 0.03023557
0.04749325 0.665041 0.02777303
0.04714479 0.6635045 0.02537975
0.04661941 0.6618992 0.02306515
0.04591541 0.6602395 0.0208381
0.04503259 0.6585401 0.01870675
0.04397225 0.6568162 0.01667845
0.04273719 0.6550833 0.01475961
0.04133165 0.653357 0.0129556
0.03976126 0.6516526 0.01127072
0.03803294 0.6499848 0.009708152
0.03615472 0.6483681 0.0082699
0.03413567 0.6468158 0.006956846
0.03198568 0.6453407 0.00576876
0.02971533 0.6439541 0.004704356
0.02733568 0.6426664 0.003761362
0.02485812 0.6414867 0.002936605
0.02229419 0.640423 0.002226115
0.01965544 0.6394817 0.001625221
0.01695327 0.6386681 0.00112867
0.01419881 0.6379864 0.0007307353
0.01140281 0.6374395 0.0004253237
0.008575514 0.637029 0.000206084
0.005726653 0.6367558 6.650381e-05
0.00286533 0.6366198 0
0 0.6366198 0

LINES 349 1047
2 0 1
2 1 2
2 2 3
2 3 4
2 4 5
2 5 6
2 6 7
2 7 8
2 8 9
2 9 10
2 10 11
2 11 12
2 12 13
2 13 14
2 14 15
2 15 16
2 16 17
2 17 18
2 18 19
2 19 20
2 20 21
2 21 22
2 22 23
2 23 24
2 24 25
2 25 26
2 26 27
2 27 28
2 28 29
2 29 30
2 30 31
2 31 32
2 32 33
2 33 34
2 34 35
2 35 36
2 36 37
2 37 38
2 38 39
2 39 40
2 40 41
2 41 42
2 42 43
2 43 44
2 44 45
2 45 46
2 46 47
2 47 48
2 48 49
2 49 50
2 50 51
2 51 52
2 52 53
2 53 54
2 54 55
2 55 56
2 56 57
2 57 58
2 58 59
2 59 60
2 60 61
2 61 62
2 62 63
2 63 64
2 64 65
2 65 66
2 66 67
2 67 68
2 68 69
2 69 70
2 70 71
2 71 72
2 72 73
2 73 74
2 74 75
2 75 76
2 76 77
2 77 78
2 78 79
2 79 80
2 80 81
2 81 82
2 82 83
2 83 84
2 84 85
2 85 86
2 86 87
2 87 88
2 88 89
2 89 90
2 90 91
2 91 92
2 92 93
2 93 94
2 94 95
2 95 96
2 96 97
2 97 98
2 98 99
2 99 100
2 100 101
2 101 102
2 102 103
2 103 104
2 104 105
2 105 106
2 106 107
2 107 108
2 108 109
2 109 110
2 110 111
2 111 112
2 112 113
2 113 114
2 114 115
2 115 116
2 116 117
2 117 118
2 118 119
2 119 120
2 120 121
2 121 122
2 122 123
2 123 124
2 124 125
2 125 126
2 126 127
2 127 128
2 128 129
2 129 130
2 130 131
2 131 132
2 132 133
2 133 134
2 134 135
2 135 136
2 136 137
2 137 138
2 138 139
2 139 140
2 140 141
2 141 142
2 142 143
2 143 144
2 144 145
2 145 146
2 146 147
2 147 148
2 148 149
2 149 150
2 150 151
2 151 152
2 152 153
2 153 154
2 154 155
2 155 156
2 156 157
2 157 158
2 158 159
2 159 160
2 160 161
2 161 162
2 162 163
2 163 164
2 164 165
2 165 166
2 166 167
2 167 168
2 168 169
2 169 170
2 170 171
2 171 172
2 172 173
2 173 174
2 174 175
2 175 176
2 176 177
2 177 178
2 178 179
2 179 180
2 180 181
2 181 182
2 182 183
2 183 184
2 184 185
2 185 186
2 186 187
2 187 188
2 188 189
2 189 190
2 190 191
2 191 192
2 192 193
2 193 194
2 194 195
2 195 196
2 196 197
2 197 198
2 198 199
2 199 200
2 200 201
2 201 202
2 202 203
2 203 204
2 204 205
2 205 206
2 206 207
2 207 208
2 208 209
2 209 210
2 210 211
2 211 212
2 212 213
2 213 214
2 214 215
2 215 216
2 216 217
2 217 218
2 218 219
2 219 220
2 220 221
2 221 222
2 222 223
2 223 224
2 224 225
2 225 226
2 226 227
2 227 228
2 228 229
2 229 230
2 230 231
2 231 232
2 232 233
2 233 234
2 234 235
2 235 236
2 236 237
2 237 238
2 238 239
2 239 240
2 240 241
2 241 242
2 242 243
2 243 244
2 244 245
2 245 246
2 246 247
2 247 248
2 248 249
2 249 250
2 250 251
2 251 252
2 252 253
2 253 254
2 254 255
2 255 256
2 256 257
2 257 258
2 258 259
2 259 260
2 260 261
2 261 262
2 262 263
2 263 264
2 264 265
2 265 266
2 266 267
2 267 268
2 268 269
2 269 270
2 270 271
2 271 272
2 272 273
2 273 274
2 274 275
2 275 276
2 276 277
2 277 278
2 278 279
2 279 280
2 280 281
2 281 282
2 282 283
2 283 284
2 284 285
2 285 286
2 286 287
2 287 288
2 288 289
2 289 290
2 290 291
2 291 292
2 292 293
2 293 294
2 294 295
2 295 296
2 296 297
2 297 298
2 298 299
2 299 300
2 300 301
2 301 302
2 302 303
2 303 304
2 304 305
2 305 306
2 306 307
2 307 308
2 308 309
2 309 310
2 310 311
2 311 312
2 312 313
2 313 314
2 314 315
2 315 316
2 316 317
2 317 318
2 318 319
2 319 320
2 320 321
2 321 322
2 322 323
2 323 324
2 324 325
2 325 326
2 326 327
2 327 328
2 328 329
2 329 330
2 330 331
2 331 332
2 332 333
2 333 334
2 334 335
2 335 336
2 336 337
2 337 338
2 338 339
2 339 340
2 340 341
2 341 342
2 342 343
2 343 344
2 344 345
2 345 346
2 346 347
2 347 348
2 348 349


POINT_DATA 350
SCALARS a FLOAT 1
LOOKUP_TABLE default
0.0005894628
0.0005894628
0.0005894628
0.0005894628
0.0005894628
0.0005894628
0.0005894628
0.0005894628
0.0005894628
0.0005894628
0.0005894628
0.0005894628
0.0005894628
0.0005894628
0.0005894628
0.0005894628
0.0005894628
0.0005894628
0.0005894628
0.0005894628
0.0005894628
0.0005894628
0.0005894628
0.0005894628
0.0005894628
0.0005894628
0.0005894628
0.0005894628
0.0005894628
0.0005894628
0.0005894628
0.0005894628
0.0005894628
0.0005894628
0.0005894628
0.0005894628
0.0005894628
0.0005894628
0.0005894628
0.0005894628
0.0005894628
0.0005894628
0.0005894628
0.0005894628
0.0005894628
0.0005894628
0.0005894628
0.0005894628
0.0005894628
0.0005894628
0.0005894628
0.0005894628
0.0005894628
0.0005894628
0.0005894628
0.0005894628
0.0005894628
0.0005894628
0.0005894628
0.0005894628
0.0005894628
0.0005894628
0.0005894628
0.0005894628
0.0005894628
0.0005894628
0.0005894628
0.0005894628
0.0005894628
0.0005894628
0.0005894628
0.0005894628
0.0005894628
0.0005894628
0.0005894628
0.0005894628
0.0005894628
0.0005894628
0.0005894628
0.0005894628
0.0005894628
0.0005894628
0.0005894628
0.0005894628
0.0005894628
0.0005894628
0.0005894628
0.0005894628
0.0005894628
0.0005894628
0.0005894628
0.0005894628
0.0005894628
0.0005894628
0.0005894628
0.0005894628
0.0005894628
0.0005894628
0.0005894628
0.0005894628
0.0005894628
0.0005894628
0.0005894628
0.0005894628
0.0005894628
0.0005894628
0.0005894628
0.0005894628
0.0005894628
0.0005894628
0.0005894628
0.0005894628
0.0005894628
0.0005894628
0.0005894628
0.0005894628
0.0005894628
0.0005894628
0.0005894628
0.0005894628
0.0005894628
0.0005894628
0.0005894628
0.0005894628
0.0005894628
0.0005894628
0.0005894628
0.0005894628
0.0005894628
0.0005894628
0.0005894628
0.0005894628
0.0005894628
0.0005894628
0.0005894628
0.0005894628
0.0005894628
0.0005894628
0.0005894628
0.0005894628
0.0005894628
0.0005894628
0.0005894628
0.0005894628
0.0005894628
0.0005894628
0.0005894628
0.0005894628
0.0005894628
0.0005894628
0.0005894628
0.0005894628
0.0005894628
0.0005894628
0.0005894628
0.0005894628
0.0005894628
0.0005894628
0.0005894628
0.0005894628
0.0005894628
0.0005894628
0.0005894628
0.0005894628
0.0005894628
0.0005894628
0.0005894628
0.0005894628
0.0005894628
0.0005894628
0.0005894628
0.0005894628
0.0005894628
0.0005894628
0.0005894628
0.0005894628
0.0005894628
0.0005894628
0.0005894628
0.0005894628
0.0005894628
0.0005894628
0.0005894628
0.0005894628
0.0005894628
0.0005894628
0.0005894628
0.0005894628
0.0005894628
0.0005894628
0.0005894628
0.0005894628
0.0005894628
0.0005894628
0.0005894628
0.0005894628
0.0005894628
0.0005894628
0.0005894628
0.0005894628
0.0005894628
0.0005894628
0.0005894628
0.0005894628
0.0005894628
0.0005894628
0.0005894628
0.0005894628
0.0005894628
0.0005894628
0.0005894628
0.0005894628
0.0005894628
0.0005894628
0.0005894628
0.0005894628
0.0005894628
0.0005894628
0.0005894628
0.0005894628
0.0005894628
0.0005894628
0.0005894628
0.0005894628
0.0005894628
0.0005894628
0.0005894628
0.0005894628
0.0005894628
0.0005894628
0.0005894628
0.0005894628
0.0005894628
0.0005894628
0.0005894628
0.0005894628
0.0005894628
0.0005894628
0.0005894628
0.0005894628
0.0005894628
0.0005894628
0.0005894628
0.0005894628
0.0005894628
0.0005894628
0.0005894628
0.0005894628
0.0005894628
0.0005894628
0.0005894628
0.0005894628
0.0005894628
0.0005894628
0.0005894628
0.0005894628
0.0005894628
0.0005894628
0.0005894628
0.0005894628
0.0005894628
0.0005894628
0.0005894628
0.0005894628
0.0005894628
0.0005894628
0.0005894628
0.0005894628
0.0005894628
0.0005894628
0.0005894628
0.0005894628
0.0005894628
0.0005894628
0.0005894628
0.0005894628
0.0005894628
0.0005894628
0.0005894628
0.0005894628
0.0005894628
0.0005894628
0.0005894628
0.0005894628
0.0005894628
0.0005894628
0.0005894628
0.0005894628
0.0005894628
0.0005894628
0.0005894628
0.0005894628
0.0005894628
0.0005894628
0.0005894628
0.0005894628
0.0005894628
0.0005894628
0.0005894628
0.0005894628
0.0005894628
0.0005894628
0.0005894628
0.0005894628
0.0005894628
0.0005894628
0.0005894628
0.0005894628
0.0005894628
0.0005894628
0.0005894628
0.0005894628
0.0005894628
0.0005894628
0.0005894628
0.0005894628
0.0005894628
0.0005894628
0.0005894628
0.0005894628
0.0005894628
0.0005894628
0.0005894628
0.0005894628
0.0005894628
0.0005894628
0.0005894628
0.0005894628
0.0005894628
0.0005894628
0.0005894628
0.0005894628
0.0005894628
0.0005894628
0.0005894628
0.0005894628
0.0005894628
0.0005894628
0.0005894628
0.0005894628
0.0005894628
0.0005894628
0.0005894628
0.0005894628
0.0005894628
0.0005894628
0.0005894628
0.0005894628
0.0005894628
0.0005894628


SCALARS b FLOAT 1
LOOKUP_TABLE default
0.04420971
0.04420971
0.04420971
0.04420971
0.04420971
0.04420971
0.04420971
0.04420971
0.04420971
0.04420971
0.04420971
0.04420971
0.04420971
0.04420971
0.04420971
0.04420971
0.04420971
0.04420971
0.04420971
0.04420971
0.04420971
0.04420971
0.04420971
0.04420971
0.04420971
0.04420971
0.04420971
0.04420971
0.04420971
0.04420971
0.04420971
0.04420971
0.04420971
0.04420971
0.04420971
0.04420971
0.04420971
0.04420971
0.04420971
0.04420971
0.04420971
0.04420971
0.04420971
0.04420971
0.04420971
0.04420971
0.04420971
0.04420971
0.04420971
0.04420971
0.04420971
0.04420971
0.04420971
0.04420971
0.04420971
0.04420971
0.04420971
0.04420971
0.04420971
0.04420971
0.04420971
0.04420971
0.04420971
0.04420971
0.04420971
0.04420971
0.04420971
0.04420971
0.04420971
0.04420971
0.04420971
0.04420971
0.04420971
0.04420971
0.04420971
0.04420971
0.04420971
0.04420971
0.04420971
0.04420971
0.04420971
0.04420971
0.04420971
0.04420971
0.04420971
0.04420971
0.04420971
0.04420971
0.04420971
0.04420971
0.04420971
0.04420971
0.04420971
0.04420971
0.04420971
0.04420971
0.04420971
0.04420971
0.04420971
0.04420971
0.04420971
0.04420971
0.04420971
0.04420971
0.04420971
0.04420971
0.04420971
0.04420971
0.04420971
0.04420971
0.04420971
0.04420971
0.04420971
0.04420971
0.04420971
0.04420971
0.04420971
0.04420971
0.04420971
0.04420971
0.04420971
0.04420971
0.04420971
0.04420971
0.04420971
0.04420971
0.04420971
0.04420971
0.04420971
0.04420971
0.04420971
0.04420971
0.04420971
0.04420971
0.04420971
0.04420971
0.04420971
0.04420971
0.04420971
0.04420971
0.04420971
0.04420971
0.04420971
0.04420971
0.04420971
0.04420971
0.04420971
0.04420971
0.04420971
0.04420971
0.04420971
0.04420971
0.04420971
0.04420971
0.04420971
0.04420971
0.04420971
0.04420971
0.04420971
0.04420971
0.04420971
0.04420971
0.04420971
0.04420971
0.04420971
0.04420971
0.04420971
0.04420971
0.04420971
0.04420971
0.04420971
0.04420971
0.04420971
0.04420971
0.04420971
0.04420971
0.04420971
0.04420971
0.04420971
0.04420971
0.04420971
0.04420971
0.04420971
0.04420971
0.04420971
0.04420971
0.04420971
0.04420971
0.04420971
0.04420971
0.04420971
0.04420971
0.04420971
0.04420971
0.04420971
0.04420971
0.04420971
0.04420971
0.04420971
0.04420971
0.04420971
0.04420971
0.04420971
0.04420971
0.04420971
0.04420971
0.04420971
0.04420971
0.04420971
0.04420971
0.04420971
0.04420971
0.04420971
0.04420971
0.04420971
0.04420971
0.04420971
0.04420971
0.04420971
0.04420971
0.04420971
0.04420971
0.04420971
0.04420971
0.04420971
0.04420971
0.04420971
0.04420971
0.04420971
0.04420971
0.04420971
0.04420971
0.04420971
0.04420971
0.04420971
0.04420971
0.04420971
0.04420971
0.04420971
0.04420971
0.04420971
0.04420971
0.04420971
0.04420971
0.04420971
0.04420971
0.04420971
0.04420971
0.04420971
0.04420971
0.04420971
0.04420971
0.04420971
0.04420971
0.04420971
0.04420971
0.04420971
0.04420971
0.04420971
0.04420971
0.04420971
0.04420971
0.04420971
0.04420971
0.04420971
0.04420971
0.04420971
0.04420971
0.04420971
0.04420971
0.04420971
0.04420971
0.04420971
0.04420971
0.04420971
0.04420971
0.04420971
0.04420971
0.04420971
0.04420971
0.04420971
0.04420971
0.04420971
0.04420971
0.04420971
0.04420971
0.04420971
0.04420971
0.04420971
0.04420971
0.04420971
0.04420971
0.04420971
0.04420971
0.04420971
0.04420971
0.04420971
0.04420971
0.04420971
0.04420971
0.04420971
0.04420971
0.04420971
0.04420971
0.04420971
0.04420971
0.04420971
0.04420971
0.04420971
0.04420971
0.04420971
0.04420971
0.04420971
0.04420971
0.04420971
0.04420971
0.04420971
0.04420971
0.04420971
0.04420971
0.04420971
0.04420971
0.04420971
0.04420971
0.04420971
0.04420971
0.04420971
0.04420971
0.04420971
0.04420971
0.04420971
0.04420971
0.04420971
0.04420971
0.04420971
0.04420971
0.04420971
0.04420971
0.04420971
0.04420971
0.04420971
0.04420971
0.04420971
0.04420971
0.04420971
0.04420971
0.04420971
0.04420971
0.04420971
0.04420971


VECTORS d1 FLOAT
0 -0.9058943 0.4235039
-0.05285008 -0.8894029 0.4540588
-0.1069955 -0.8688977 0.4832894
-0.1621733 -0.8442015 0.5109048
-0.2180804 -0.8151681 0.5366022
-0.2743734 -0.7816898 0.5600717
-0.3306708 -0.7437033 0.5810011
-0.3865557 -0.7011966 0.599081
-0.4415799 -0.6542143 0.6140121
-0.4952696 -0.6028632 0.6255111
-0.5471325 -0.5473152 0.6333184
-0.5966661 -0.4878103 0.6372054
-0.6433671 -0.424657 0.6369814
-0.6867416 -0.3582305 0.6325005
-0.7263164 -0.2889698 0.6236674
-0.7616495 -0.2173718 0.6104421
-0.7923416 -0.1439834 0.5928437
-0.8180456 -0.06939245 0.5709519
-0.838476 0.005783981 0.5449078
-0.8534164 0.0809118 0.5149113
-0.8627247 0.1553532 0.4812187
-0.8663368 0.2284802 0.4441367
-0.8642674 0.2996878 0.4040161
-0.8566093 0.3684065 0.3612439
-0.8435291 0.4341134 0.3162344
-0.8252623 0.4963418 0.2694196
-0.8021056 0.5546886 0.22124
-0.7744082 0.6088196 0.1721354
-0.7425622 0.6584728 0.1225355
-0.7069922 0.703459 0.07285272
-0.6681447 0.743661 0.02347479
-0.6264784 0.77903 -0.02524054
-0.5824543 0.8095816 -0.07296992
-0.5365268 0.8353898 -0.1194275
-0.4891365 0.8565799 -0.1643663
-0.4407035 0.8733219 -0.2075795
-0.3916223 0.8858224 -0.2488991
-0.3422575 0.8943173 -0.288195
-0.2929415 0.8990649 -0.3253729
-0.2439728 0.9003386 -0.3603717
-0.195615 0.8984208 -0.3931601
-0.1480975 0.8935977 -0.4237338
-0.1016159 0.8861542 -0.4521117
-0.05633391 0.8763697 -0.4783332
-0.01238505 0.8645153 -0.502454
0.03012512 0.8508504 -0.5245437
0.07111657 0.8356212 -0.544683
0.1105323 0.8190593 -0.5629604
0.1483358 0.8013803 -0.5794705
0.1845085 0.7827836 -0.5943117
0.2190476 0.7634523 -0.6075843
0.2519637 0.7435531 -0.6193892
0.2832785 0.7232371 -0.6298264
0.3130233 0.70264 -0.6389941
0.3412369 0.6818829 -0.6469877
0.3679642 0.6610733 -0.6538994
0.3932547 0.6403059 -0.6598174
0.4171615 0.6196636 -0.6648257
0.4397401 0.5992181 -0.669004
0.4610473 0.5790311 -0.6724273
0.4811408 0.5591553 -0.6751658
0.5000785 0.539635 -0.6772855
0.5179176 0.5205069 -0.6788475
0.5347146 0.5018014 -0.6799086
0.5505246 0.4835424 -0.6805215
0.5654012 0.4657488 -0.6807345
0.5793965 0.4484348 -0.6805923
0.5925604 0.4316103 -0.6801358
0.6049409 0.4152817 -0.6794024
0.6165839 0.3994522 -0.6784263
0.6275333 0.3841223 -0.6772385
0.6378308 0.3692901 -0.6758673
0.647516 0.3549517 -0.6743384
0.6566263 0.3411014 -0.672675
0.6651974 0.3277323 -0.6708979
0.6732625 0.3148359 -0.6690261
0.6808535 0.3024031 -0.6670763
0.688 0.2904238 -0.6650639
0.69473 0.2788872 -0.6630024
0.7010699 0.2677821 -0.6609038
0.7070443 0.2570969 -0.6587789
0.7126764 0.2468197 -0.6566372
0.717988 0.2369384 -0.6544872
0.7229994 0.2274409 -0.6523362
0.7277297 0.2183149 -0.6501908
0.7321968 0.2095484 -0.6480566
0.7364173 0.2011292 -0.6459386
0.7404068 0.1930454 -0.643841
0.7441801 0.1852851 -0.6417674
0.7477506 0.1778368 -0.6397212
0.7511311 0.170689 -0.6377048
0.7543335 0.1638305 -0.6357204
0.757369 0.1572504 -0.6337701
0.7602478 0.150938 -0.6318552
0.7629796 0.144883 -0.629977
0.7655735 0.1390751 -0.6281364
0.7680378 0.1335046 -0.6263342
0.7703802 0.1281619 -0.6245709
0.7726082 0.1230377 -0.6228469
0.7747285 0.1181231 -0.6211623
0.7767474 0.1134093 -0.6195174
0.7786708 0.1088881 -0.617912
0.7805041 0.1045513 -0.616346
0.7822524 0.1003911 -0.6148193
0.7839205 0.09640006 -0.6133316
0.7855128 0.09257097 -0.6118826
0.7870333 0.08889686 -0.6104719
0.788486 0.0853711 -0.609099
0.7898743 0.0819873 -0.6077637
0.7912016 0.07873934 -0.6064653
0.7924709 0.07562135 -0.6052035
0.7936852 0.07262773 -0.6039776
0.7948472 0.0697531 -0.6027872
0.7959594 0.06699233 -0.6016317
0.7970241 0.06434052 -0.6005105
0.7980436 0.06179297 -0.5994231
0.7990199 0.05934519 -0.5983689
0.7999551 0.05699291 -0.5973472
0.8008509 0.05473202 -0.5963575
0.801709 0.05255863 -0.5953992
0.8025312 0.05046899 -0.5944716
0.803319 0.04845953 -0.5935742
0.8040737 0.04652685 -0.5927062
0.8047969 0.04466767 -0.5918672
0.8054898 0.04287888 -0.5910563
0.8061537 0.0411575 -0.5902731
0.8067897 0.03950066 -0.5895169
0.8073989 0.03790563 -0.588787
0.8079825 0.0363698 -0.5880829
0.8085415 0.03489066 -0.5874038
0.8090768 0.0334658 -0.5867493
0.8095894 0.03209291 -0.5861186
0.8100801 0.03076979 -0.5855113
0.8105498 0.02949431 -0.5849266
0.8109992 0.02826443 -0.5843641
0.8114293 0.0270782 -0.583823
0.8118406 0.02593373 -0.583303
0.8122338 0.02482922 -0.5828033
0.8126098 0.02376291 -0.5823235
0.812969 0.02273315 -0.5818631
0.8133121 0.0217383 -0.5814214
0.8136397 0.02077681 -0.5809981
0.8139523 0.01984719 -0.5805926
0.8142504 0.01894798 -0.5802045
0.8145346 0.01807779 -0.5798332
0.8148054 0.01723528 -0.5794784
0.8150631 0.01641912 -0.5791395
0.8153082 0.01562807 -0.5788163
0.8155411 0.0148609 -0.5785082
0.8157623 0.01411643 -0.578215
0.8159721 0.01339351 -0.5779362
0.8161707 0.01269104 -0.5776714
0.8163587 0.01200792 -0.5774204
0.8165362 0.01134312 -0.5771827
0.8167036 0.01069562 -0.5769582
0.8168612 0.01006442 -0.5767465
0.8170092 0.009448555 -0.5765472
0.8171478 0.008847087 -0.5763603
0.8172774 0.008259096 -0.5761853
0.817398 0.007683683 -0.5760221
0.81751 0.007119971 -0.5758704
0.8176134 0.006567097 -0.5757301
0.8177085 0.006024221 -0.5756009
0.8177955 0.005490513 -0.5754827
0.8178744 0.004965162 -0.5753754
0.8179454 0.004447366 -0.5752787
0.8180086 0.003936336 -0.5751925
0.8180642 0.003431296 -0.5751167
0.8181121 0.002931475 -0.5750513
0.8181525 0.002436115 -0.5749961
0.8181855 0.001944459 -0.574951
0.8182112 0.001455762 -0.574916
0.8182294 0.0009692785 -0.574891
0.8182404 0.0004842696 -0.5748761
0.818244 -2.83449e-09 -0.5748711
0.8182404 -0.0004842752 -0.5748761
0.8182294 -0.0009692842 -0.574891
0.8182112 -0.001455767 -0.574916
0.8181855 -0.001944465 -0.574951
0.8181525 -0.00243612 -0.5749961
0.8181121 -0.002931481 -0.5750513
0.8180642 -0.003431301 -0.5751167
0.8180086 -0.003936342 -0.5751925
0.8179454 -0.004447371 -0.5752787
0.8178744 -0.004965167 -0.5753754
0.8177955 -0.005490519 -0.5754827
0.8177085 -0.006024227 -0.5756009
0.8176134 -0.006567103 -0.5757301
0.81751 -0.007119976 -0.5758704
0.817398 -0.007683689 -0.5760221
0.8172774 -0.008259102 -0.5761853
0.8171478 -0.008847093 -0.5763603
0.8170092 -0.009448561 -0.5765472
0.8168612 -0.01006442 -0.5767465
0.8167036 -0.01069562 -0.5769582
0.8165362 -0.01134313 -0.5771827
0.8163587 -0.01200793 -0.5774204
0.8161707 -0.01269104 -0.5776714
0.8159721 -0.01339352 -0.5779362
0.8157623 -0.01411644 -0.578215
0.8155411 -0.01486091 -0.5785082
0.8153082 -0.01562808 -0.5788163
0.8150631 -0.01641913 -0.5791395
0.8148054 -0.01723528 -0.5794784
0.8145346 -0.0180778 -0.5798332
0.8142504 -0.01894799 -0.5802045
0.8139523 -0.01984719 -0.5805926
0.8136397 -0.02077682 -0.5809981
0.8133121 -0.0217383 -0.5814214
0.812969 -0.02273315 -0.5818631
0.8126098 -0.02376292 -0.5823235
0.8122338 -0.02482922 -0.5828033
0.8118406 -0.02593374 -0.583303
0.8114293 -0.02707821 -0.583823
0.8109992 -0.02826444 -0.5843641