# vtk DataFile Version 2.0
Written badly by Kevin Korner
ASCII
DATASET POLYDATA
POINTS 350 FLOAT
0 0 0
0.00286533 0 0
0.005730016 1.252357e-06 6.067245e-05
0.008592775 5.076743e-06 0.0001819593
0.01145232 1.278947e-05 0.0003637322
0.01430738 2.570105e-05 0.0006057932
0.01715668 4.51138e-05 0.0009078747
0.01999895 7.231941e-05 0.001269641
0.02283294 0.0001085967 0.001690687
0.02565742 0.0001552091 0.002170543
0.02847116 0.0002134027 0.002708673
0.03127296 0.000284404 0.003304476
0.03406164 0.0003694175 0.003957291
0.03683603 0.0004696241 0.004666393
0.039595 0.0005861791 0.005431
0.04233743 0.00072021 0.006250275
0.04506224 0.0008728151 0.007123322
0.04776838 0.001045062 0.008049197
0.05045483 0.001237985 0.009026905
0.05312058 0.001452586 0.0100554
0.05576469 0.001689831 0.0111336
0.05838623 0.001950648 0.01226037
0.06098432 0.002235932 0.01343454
0.0635581 0.002546534 0.01465491
0.06610676 0.00288327 0.01592024
0.06862953 0.003246916 0.01722926
0.07112566 0.003638205 0.01858066
0.07359448 0.00405783 0.01997313
0.07603532 0.004506446 0.02140532
0.07844756 0.004984662 0.02287587
0.08083064 0.005493049 0.02438339
0.083184 0.006032135 0.02592649
0.08550718 0.006602406 0.02750376
0.08779969 0.007204309 0.02911378
0.09006114 0.007838248 0.03075515
0.09229115 0.008504589 0.03242642
0.09448938 0.009203655 0.03412619
0.09665553 0.009935734 0.03585303
0.09878935 0.01070107 0.03760551
0.1008906 0.01149988 0.03938223
0.1029591 0.01233232 0.04118179
0.1049947 0.01319854 0.04300279
0.1069973 0.01409864 0.04484385
0.1089669 0.01503268 0.04670361
0.1109032 0.01600069 0.04858071
0.1128064 0.01700269 0.05047384
0.1146765 0.01803863 0.05238166
0.1165135 0.01910845 0.0543029
0.1183174 0.02021208 0.05623629
0.1200884 0.02134939 0.05818056
0.1218266 0.02252024 0.06013452
0.1235321 0.02372446 0.06209695
0.1252051 0.02496186 0.06406669
0.1268459 0.02623222 0.06604259
0.1284546 0.02753532 0.06802354
0.1300315 0.02887088 0.07000845
0.1315768 0.03023864 0.07199626
0.1330908 0.0316383 0.07398594
0.1345738 0.03306956 0.0759765
0.1360261 0.03453207 0.07796695
0.1374481 0.03602551 0.07995637
0.13884 0.03754952 0.08194384
0.1402023 0.03910372 0.08392848
0.1415352 0.04068775 0.08590945
0.1428392 0.0423012 0.08788591
0.1441147 0.04394369 0.08985709
0.145362 0.04561481 0.09182222
0.1465815 0.04731413 0.09378056
0.1477737 0.04904125 0.09573143
0.148939 0.05079573 0.09767414
0.1500777 0.05257714 0.09960805
0.1511903 0.05438504 0.1015325
0.1522773 0.056219 0.103447
0.153339 0.05807858 0.1053509
0.1543758 0.05996332 0.1072438
0.1553883 0.06187278 0.109125
0.1563769 0.06380653 0.110994
0.1573419 0.0657641 0.1128506
0.1582839 0.06774507 0.1146941
0.1592032 0.06974898 0.1165242
0.1601003 0.07177538 0.1183405
0.1609757 0.07382385 0.1201427
0.1618296 0.07589394 0.1219303
0.1626627 0.07798521 0.123703
0.1634752 0.08009724 0.1254607
0.1642677 0.0822296 0.1272028
0.1650405 0.08438186 0.1289293
0.165794 0.0865536 0.1306398
0.1665287 0.08874441 0.1323341
0.1672449 0.09095388 0.1340121
0.1679431 0.0931816 0.1356734
0.1686236 0.09542717 0.1373179
0.1692868 0.09769021 0.1389454
0.1699331 0.09997032 0.1405558
0.1705629 0.1022671 0.142149
0.1711766 0.1045802 0.1437248
0.1717745 0.1069093 0.145283
0.172357 0.1092539 0.1468237
0.1729243 0.1116138 0.1483466
0.173477 0.1139885 0.1498517
0.1740152 0.1163778 0.1513389
0.1745394 0.1187812 0.1528082
0.1750499 0.1211985 0.1542594
0.1755469 0.1236294 0.1556926
0.1760308 0.1260734 0.1571077
0.176502 0.1285304 0.1585047
0.1769606 0.131 0.1598834
0.177407 0.1334819 0.161244
0.1778414 0.1359757 0.1625863
0.1782642 0.1384814 0.1639104
0.1786756 0.1409985 0.1652162
0.179076 0.1435267 0.1665038
0.1794654 0.1460659 0.167773
0.1798442 0.1486157 0.169024
0.1802127 0.151176 0.1702567
0.1805711 0.1537464 0.1714711
0.1809195 0.1563267 0.1726672
0.1812583 0.1589167 0.1738449
0.1815877 0.1615162 0.1750044
0.1819078 0.1641249 0.1761456
0.1822188 0.1667426 0.1772685
0.1825211 0.1693691 0.1783731
0.1828147 0.1720042 0.1794594
0.1830999 0.1746478 0.1805274
0.1833768 0.1772995 0.1815771
0.1836457 0.1799592 0.1826084
0.1839066 0.1826268 0.1836214
0.1841598 0.185302 0.184616
0.1844054 0.1879847 0.1855922
0.1846437 0.1906746 0.1865501
0.1848746 0.1933717 0.1874895
0.1850984 0.1960757 0.1884104
0.1853153 0.1987866 0.1893129
0.1855253 0.2015041 0.1901968
0.1857287 0.204228 0.1910622
0.1859254 0.2069583 0.1919089
0.1861157 0.2096948 0.1927369
0.1862997 0.2124373 0.1935462
0.1864775 0.2151857 0.1943367
0.1866492 0.2179398 0.1951083
0.1868149 0.2206995 0.195861
0.1869747 0.2234648 0.1965946
0.1871288 0.2262353 0.197309
0.1872771 0.229011 0.1980043
0.1874199 0.2317918 0.1986802
0.1875572 0.2345776 0.1993367
0.1876891 0.2373681 0.1999736
0.1878157 0.2401633 0.2005909
0.187937 0.242963 0.2011884
0.1880532 0.2457671 0.2017659
0.1881643 0.2485755 0.2023233
0.1882704 0.251388 0.2028606
0.1883716 0.2542045 0.2033774
0.1884679 0.2570249 0.2038738
0.1885594 0.259849 0.2043494
0.1886461 0.2626767 0.2048042
0.1887281 0.2655078 0.2052379
0.1888056 0.2683422 0.2056504
0.1888784 0.2711798 0.2060415
0.1889467 0.2740204 0.2064111
0.1890105 0.2768638 0.2067588
0.1890699 0.2797099 0.2070845
0.1891249 0.2825586 0.207388
0.1891755 0.2854097 0.2076692
0.1892217 0.2882629 0.2079278
0.1892637 0.2911182 0.2081637
0.1893014 0.2939754 0.2083765
0.1893349 0.2968342 0.2085663
0.1893641 0.2996946 0.2087328
0.1893891 0.3025562 0.2088758
0.1894099 0.305419 0.2089952
0.1894266 0.3082827 0.2090908
0.189439 0.3111471 0.2091627
0.1894474 0.314012 0.2092107
0.1894515 0.3168772 0.2092346
0.1894515 0.3197426 0.2092346
0.1894474 0.3226078 0.2092107
0.189439 0.3254727 0.2091627
0.1894266 0.3283371 0.2090908
0.1894099 0.3312008 0.2089952
0.1893891 0.3340635 0.2088758
0.1893641 0.3369252 0.2087328
0.1893349 0.3397855 0.2085663
0.1893014 0.3426444 0.2083765
0.1892637 0.3455015 0.2081637
0.1892217 0.3483568 0.2079278
0.1891755 0.3512101 0.2076692
0.1891249 0.3540611 0.207388
0.1890699 0.3569098 0.2070845
0.1890105 0.359756 0.2067588
0.1889467 0.3625994 0.2064111
0.1888784 0.36544 0.2060415
0.1888056 0.3682776 0.2056504
0.1887281 0.371112 0.2052379
0.1886461 0.3739431 0.2048042
0.1885594 0.3767708 0.2043494
0.1884679 0.3795949 0.2038738
0.1883716 0.3824152 0.2033774
0.1882704 0.3852318 0.2028606
0.1881643 0.3880443 0.2023233
0.1880532 0.3908527 0.2017659
0.187937 0.3936568 0.2011884
0.1878157 0.3964565 0.2005909
0.1876891 0.3992517 0.1999736
0.1875572 0.4020422 0.1993367
0.1874199 0.4048279 0.1986802
0.1872771 0.4076087 0.1980043
0.1871288 0.4103845 0.197309
0.1869747 0.413155 0.1965946
0.1868149 0.4159202 0.195861
0.1866492 0.41868 0.1951083
0.1864775 0.4214341 0.1943367
0.1862997 0.4241825 0.1935462
0.1861157 0.426925 0.1927369
0.1859254 0.4296615 0.1919089
0.1857287 0.4323918 0.1910622
0.1855253 0.4351157 0.1901968
0.1853153 0.4378332 0.1893129
0.1850984 0.440544 0.1884104
0.1848746 0.4432481 0.1874895
0.1846437 0.4459452 0.1865501
0.1844054 0.4486351 0.1855922
0.1841598 0.4513178 0.184616
0.1839066 0.453993 0.1836214
0.1836457 0.4566606 0.1826084
0.1833768 0.4593203 0.1815771
0.1830999 0.461972 0.1805274
0.1828147 0.4646155 0.1794594
0.1825211 0.4672507 0.1783731
0.1822188 0.4698772 0.1772685
0.1819078 0.4724949 0.1761456
0.1815877 0.4751036 0.1750044
0.1812583 0.4777031 0.1738449
0.1809195 0.4802931 0.1726672
0.1805711 0.4828734 0.1714711
0.1802127 0.4854438 0.1702567
0.1798442 0.488004 0.169024
0.1794654 0.4905539 0.167773
0.179076 0.4930931 0.1665038
0.1786756 0.4956213 0.1652162
0.1782642 0.4981384 0.1639104
0.1778414 0.500644 0.1625863
0.177407 0.5031379 0.161244
0.1769606 0.5056198 0.1598834
0.176502 0.5080894 0.1585047
0.1760308 0.5105463 0.1571077
0.1755469 0.5129904 0.1556926
0.1750499 0.5154213 0.1542594
0.1745394 0.5178386 0.1528082
0.1740152 0.520242 0.1513389
0.173477 0.5226313 0.1498517
0.1729243 0.525006 0.1483466
0.172357 0.5273659 0.1468237
0.1717745 0.5297105 0.145283
0.1711766 0.5320395 0.1437248
0.1705629 0.5343527 0.142149
0.1699331 0.5366495 0.1405558
0.1692868 0.5389296 0.1389454
0.1686236 0.5411926 0.1373179
0.1679431 0.5434382 0.1356734
0.1672449 0.5456659 0.1340121
0.1665287 0.5478754 0.1323341
0.165794 0.5500662 0.1306398
0.1650405 0.5522379 0.1289293
0.1642677 0.5543902 0.1272028
0.1634752 0.5565225 0.1254607
0.1626627 0.5586346 0.123703
0.1618296 0.5607258 0.1219303
0.1609757 0.5627959 0.1201427
0.1601003 0.5648444 0.1183405
0.1592032 0.5668708 0.1165242
0.1582839 0.5688747 0.1146941
0.1573419 0.5708557 0.1128506
0.1563769 0.5728132 0.110994
0.1553883 0.574747 0.109125
0.1543758 0.5766565 0.1072438
0.153339 0.5785412 0.1053509
0.1522773 0.5804008 0.103447
0.1511903 0.5822347 0.1015325
0.1500777 0.5840426 0.09960805
0.148939 0.585824 0.09767414
0.1477737 0.5875785 0.09573143
0.1465815 0.5893056 0.09378056
0.145362 0.591005 0.09182222
0.1441147 0.5926761 0.08985709
0.1428392 0.5943186 0.08788591
0.1415352 0.595932 0.08590945
0.1402023 0.5975161 0.08392848
0.13884 0.5990703 0.08194384
0.1374481 0.6005943 0.07995637
0.1360261 0.6020877 0.07796695
0.1345738 0.6035502 0.0759765
0.1330908 0.6049815 0.07398594
0.1315768 0.6063811 0.07199626
0.1300315 0.6077489 0.07000845
0.1284546 0.6090845 0.06802354
0.1268459 0.6103875 0.06604259
0.1252051 0.6116579 0.06406669
0.1235321 0.6128953 0.06209695
0.1218266 0.6140995 0.06013452
0.1200884 0.6152704 0.05818056
0.1183174 0.6164077 0.05623629
0.1165135 0.6175113 0.0543029
0.1146765 0.6185811 0.05238166
0.1128064 0.6196171 0.05047384
0.1109032 0.6206191 0.04858071
0.1089669 0.6215871 0.04670361
0.1069973 0.6225211 0.04484385
0.1049947 0.6234212 0.04300279
0.1029591 0.6242875 0.04118179
0.1008906 0.6251199 0.03938223
0.09878935 0.6259187 0.03760551
0.09665553 0.626684 0.03585303
0.09448938 0.6274161 0.03412619
0.09229115 0.6281152 0.03242642
0.09006114 0.6287815 0.03075515
0.08779969 0.6294155 0.02911378
0.08550718 0.6300174 0.02750376
0.083184 0.6305876 0.02592649
0.08083063 0.6311267 0.02438339
0.07844756 0.6316351 0.02287587
0.07603532 0.6321133 0.02140532
0.07359448 0.6325619 0.01997313
0.07112566 0.6329816 0.01858066
0.06862953 0.6333729 0.01722926
0.06610676 0.6337365 0.01592024
0.0635581 0.6340732 0.01465491
0.06098432 0.6343838 0.01343454
0.05838623 0.6346691 0.01226037
0.05576469 0.6349299 0.0111336
0.05312058 0.6351672 0.0100554
0.05045483 0.6353818 0.009026905
0.04776838 0.6355747 0.008049197
0.04506224 0.635747 0.007123322
0.04233743 0.6358996 0.006250275
0.039595 0.6360336 0.005431
0.03683603 0.6361501 0.004666393
0.03406164 0.6362504 0.003957291
0.03127296 0.6363354 0.003304476
0.02847116 0.6364064 0.002708673
0.02565742 0.6364646 0.002170543
0.02283294 0.6365112 0.001690687
0.01999895 0.6365475 0.001269641
0.01715668 0.6365747 0.0009078747
0.01430738 0.6365941 0.0006057932
0.01145232 0.636607 0.0003637322
0.008592775 0.6366147 0.0001819593
0.005730016 0.6366185 6.067245e-05
0.00286533 0.6366198 0
0 0.6366198 0

LINES 349 1047
2 0 1
2 1 2
2 2 3
2 3 4
2 4 5
2 5 6
2 6 7
2 7 8
2 8 9
2 9 10
2 10 11
2 11 12
2 12 13
2 13 14
2 14 15
2 15 16
2 16 17
2 17 18
2 18 19
2 19 20
2 20 21
2 21 22
2 22 23
2 23 24
2 24 25
2 25 26
2 26 27
2 27 28
2 28 29
2 29 30
2 30 31
2 31 32
2 32 33
2 33 34
2 34 35
2 35 36
2 36 37
2 37 38
2 38 39
2 39 40
2 40 41
2 41 42
2 42 43
2 43 44
2 44 45
2 45 46
2 46 47
2 47 48
2 48 49
2 49 50
2 50 51
2 51 52
2 52 53
2 53 54
2 54 55
2 55 56
2 56 57
2 57 58
2 58 59
2 59 60
2 60 61
2 61 62
2 62 63
2 63 64
2 64 65
2 65 66
2 66 67
2 67 68
2 68 69
2 69 70
2 70 71
2 71 72
2 72 73
2 73 74
2 74 75
2 75 76
2 76 77
2 77 78
2 78 79
2 79 80
2 80 81
2 81 82
2 82 83
2 83 84
2 84 85
2 85 86
2 86 87
2 87 88
2 88 89
2 89 90
2 90 91
2 91 92
2 92 93
2 93 94
2 94 95
2 95 96
2 96 97
2 97 98
2 98 99
2 99 100
2 100 101
2 101 102
2 102 103
2 103 104
2 104 105
2 105 106
2 106 107
2 107 108
2 108 109
2 109 110
2 110 111
2 111 112
2 112 113
2 113 114
2 114 115
2 115 116
2 116 117
2 117 118
2 118 119
2 119 120
2 120 121
2 121 122
2 122 123
2 123 124
2 124 125
2 125 126
2 126 127
2 127 128
2 128 129
2 129 130
2 130 131
2 131 132
2 132 133
2 133 134
2 134 135
2 135 136
2 136 137
2 137 138
2 138 139
2 139 140
2 140 141
2 141 142
2 142 143
2 143 144
2 144 145
2 145 146
2 146 147
2 147 148
2 148 149
2 149 150
2 150 151
2 151 152
2 152 153
2 153 154
2 154 155
2 155 156
2 156 157
2 157 158
2 158 159
2 159 160
2 160 161
2 161 162
2 162 163
2 163 164
2 164 165
2 165 166
2 166 167
2 167 168
2 168 169
2 169 170
2 170 171
2 171 172
2 172 173
2 173 174
2 174 175
2 175 176
2 176 177
2 177 178
2 178 179
2 179 180
2 180 181
2 181 182
2 182 183
2 183 184
2 184 185
2 185 186
2 186 187
2 187 188
2 188 189
2 189 190
2 190 191
2 191 192
2 192 193
2 193 194
2 194 195
2 195 196
2 196 197
2 197 198
2 198 199
2 199 200
2 200 201
2 201 202
2 202 203
2 203 204
2 204 205
2 205 206
2 206 207
2 207 208
2 208 209
2 209 210
2 210 211
2 211 212
2 212 213
2 213 214
2 214 215
2 215 216
2 216 217
2 217 218
2 218 219
2 219 220
2 220 221
2 221 222
2 222 223
2 223 224
2 224 225
2 225 226
2 226 227
2 227 228
2 228 229
2 229 230
2 230 231
2 231 232
2 232 233
2 233 234
2 234 235
2 235 236
2 236 237
2 237 238
2 238 239
2 239 240
2 240 241
2 241 242
2 242 243
2 243 244
2 244 245
2 245 246
2 246 247
2 247 248
2 248 249
2 249 250
2 250 251
2 251 252
2 252 253
2 253 254
2 254 255
2 255 256
2 256 257
2 257 258
2 258 259
2 259 260
2 260 261
2 261 262
2 262 263
2 263 264
2 264 265
2 265 266
2 266 267
2 267 268
2 268 269
2 269 270
2 270 271
2 271 272
2 272 273
2 273 274
2 274 275
2 275 276
2 276 277
2 277 278
2 278 279
2 279 280
2 280 281
2 281 282
2 282 283
2 283 284
2 284 285
2 285 286
2 286 287
2 287 288
2 288 289
2 289 290
2 290 291
2 291 292
2 292 293
2 293 294
2 294 295
2 295 296
2 296 297
2 297 298
2 298 299
2 299 300
2 300 301
2 301 302
2 302 303
2 303 304
2 304 305
2 305 306
2 306 307
2 307 308
2 308 309
2 309 310
2 310 311
2 311 312
2 312 313
2 313 314
2 314 315
2 315 316
2 316 317
2 317 318
2 318 319
2 319 320
2 320 321
2 321 322
2 322 323
2 323 324
2 324 325
2 325 326
2 326 327
2 327 328
2 328 329
2 329 330
2 330 331
2 331 332
2 332 333
2 333 334
2 334 335
2 335 336
2 336 337
2 337 338
2 338 339
2 339 340
2 340 341
2 341 342
2 342 343
2 343 344
2 344 345
2 345 346
2 346 347
2 347 348
2 348 349


POINT_DATA 350
SCALARS a FLOAT 1
LOOKUP_TABLE default
0.0005894628
0.0005894628
0.0005894628
0.0005894628
0.0005894628
0.0005894628
0.0005894628
0.0005894628
0.0005894628
0.0005894628
0.0005894628
0.0005894628
0.0005894628
0.0005894628
0.0005894628
0.0005894628
0.0005894628
0.0005894628
0.0005894628
0.0005894628
0.0005894628
0.0005894628
0.0005894628
0.0005894628
0.0005894628
0.0005894628
0.0005894628
0.0005894628
0.0005894628
0.0005894628
0.0005894628
0.0005894628
0.0005894628
0.0005894628
0.0005894628
0.0005894628
0.0005894628
0.0005894628
0.0005894628
0.0005894628
0.0005894628
0.0005894628
0.0005894628
0.0005894628
0.0005894628
0.0005894628
0.0005894628
0.0005894628
0.0005894628
0.0005894628
0.0005894628
0.0005894628
0.0005894628
0.0005894628
0.0005894628
0.0005894628
0.0005894628
0.0005894628
0.0005894628
0.0005894628
0.0005894628
0.0005894628
0.0005894628
0.0005894628
0.0005894628
0.0005894628
0.0005894628
0.0005894628
0.0005894628
0.0005894628
0.0005894628
0.0005894628
0.0005894628
0.0005894628
0.0005894628
0.0005894628
0.0005894628
0.0005894628
0.0005894628
0.0005894628
0.0005894628
0.0005894628
0.0005894628
0.0005894628
0.0005894628
0.0005894628
0.0005894628
0.0005894628
0.0005894628
0.0005894628
0.0005894628
0.0005894628
0.0005894628
0.0005894628
0.0005894628
0.0005894628
0.0005894628
0.0005894628
0.0005894628
0.0005894628
0.0005894628
0.0005894628
0.0005894628
0.0005894628
0.0005894628
0.0005894628
0.0005894628
0.0005894628
0.0005894628
0.0005894628
0.0005894628
0.0005894628
0.0005894628
0.0005894628
0.0005894628
0.0005894628
0.0005894628
0.0005894628
0.0005894628
0.0005894628
0.0005894628
0.0005894628
0.0005894628
0.0005894628
0.0005894628
0.0005894628
0.0005894628
0.0005894628
0.0005894628
0.0005894628
0.0005894628
0.0005894628
0.0005894628
0.0005894628
0.0005894628
0.0005894628
0.0005894628
0.0005894628
0.0005894628
0.0005894628
0.0005894628
0.0005894628
0.0005894628
0.0005894628
0.0005894628
0.0005894628
0.0005894628
0.0005894628
0.0005894628
0.0005894628
0.0005894628
0.0005894628
0.0005894628
0.0005894628
0.0005894628
0.0005894628
0.0005894628
0.0005894628
0.0005894628
0.0005894628
0.0005894628
0.0005894628
0.0005894628
0.0005894628
0.0005894628
0.0005894628
0.0005894628
0.0005894628
0.0005894628
0.0005894628
0.0005894628
0.0005894628
0.0005894628
0.0005894628
0.0005894628
0.0005894628
0.0005894628
0.0005894628
0.0005894628
0.0005894628
0.0005894628
0.0005894628
0.0005894628
0.0005894628
0.0005894628
0.0005894628
0.0005894628
0.0005894628
0.0005894628
0.0005894628
0.0005894628
0.0005894628
0.0005894628
0.0005894628
0.0005894628
0.0005894628
0.0005894628
0.0005894628
0.0005894628
0.0005894628
0.0005894628
0.0005894628
0.0005894628
0.0005894628
0.0005894628
0.0005894628
0.0005894628
0.0005894628
0.0005894628
0.0005894628
0.0005894628
0.0005894628
0.0005894628
0.0005894628
0.0005894628
0.0005894628
0.0005894628
0.0005894628
0.0005894628
0.0005894628
0.0005894628
0.0005894628
0.0005894628
0.0005894628
0.0005894628
0.0005894628
0.0005894628
0.0005894628
0.0005894628
0.0005894628
0.0005894628
0.0005894628
0.0005894628
0.0005894628
0.0005894628
0.0005894628
0.0005894628
0.0005894628
0.0005894628
0.0005894628
0.0005894628
0.0005894628
0.0005894628
0.0005894628
0.0005894628
0.0005894628
0.0005894628
0.0005894628
0.0005894628
0.0005894628
0.0005894628
0.0005894628
0.0005894628
0.0005894628
0.0005894628
0.0005894628
0.0005894628
0.0005894628
0.0005894628
0.0005894628
0.0005894628
0.0005894628
0.0005894628
0.0005894628
0.0005894628
0.0005894628
0.0005894628
0.0005894628
0.0005894628
0.0005894628
0.0005894628
0.0005894628
0.0005894628
0.0005894628
0.0005894628
0.0005894628
0.0005894628
0.0005894628
0.0005894628
0.0005894628
0.0005894628
0.0005894628
0.0005894628
0.0005894628
0.0005894628
0.0005894628
0.0005894628
0.0005894628
0.0005894628
0.0005894628
0.0005894628
0.0005894628
0.0005894628
0.0005894628
0.0005894628
0.0005894628
0.0005894628
0.0005894628
0.0005894628
0.0005894628
0.0005894628
0.0005894628
0.0005894628
0.0005894628
0.0005894628
0.0005894628
0.0005894628
0.0005894628
0.0005894628
0.0005894628
0.0005894628
0.0005894628
0.0005894628
0.0005894628
0.0005894628
0.0005894628
0.0005894628
0.0005894628
0.0005894628
0.0005894628
0.0005894628
0.0005894628
0.0005894628
0.0005894628
0.0005894628
0.0005894628
0.0005894628
0.0005894628
0.0005894628
0.0005894628
0.0005894628
0.0005894628
0.0005894628
0.0005894628
0.0005894628
0.0005894628
0.0005894628
0.0005894628
0.0005894628
0.0005894628
0.0005894628
0.0005894628
0.0005894628
0.0005894628
0.0005894628
0.0005894628
0.0005894628
0.0005894628
0.0005894628
0.0005894628


SCALARS b FLOAT 1
LOOKUP_TABLE default
0.04420971
0.04420971
0.04420971
0.04420971
0.04420971
0.04420971
0.04420971
0.04420971
0.04420971
0.04420971
0.04420971
0.04420971
0.04420971
0.04420971
0.04420971
0.04420971
0.04420971
0.04420971
0.04420971
0.04420971
0.04420971
0.04420971
0.04420971
0.04420971
0.04420971
0.04420971
0.04420971
0.04420971
0.04420971
0.04420971
0.04420971
0.04420971
0.04420971
0.04420971
0.04420971
0.04420971
0.04420971
0.04420971
0.04420971
0.04420971
0.04420971
0.04420971
0.04420971
0.04420971
0.04420971
0.04420971
0.04420971
0.04420971
0.04420971
0.04420971
0.04420971
0.04420971
0.04420971
0.04420971
0.04420971
0.04420971
0.04420971
0.04420971
0.04420971
0.04420971
0.04420971
0.04420971
0.04420971
0.04420971
0.04420971
0.04420971
0.04420971
0.04420971
0.04420971
0.04420971
0.04420971
0.04420971
0.04420971
0.04420971
0.04420971
0.04420971
0.04420971
0.04420971
0.04420971
0.04420971
0.04420971
0.04420971
0.04420971
0.04420971
0.04420971
0.04420971
0.04420971
0.04420971
0.04420971
0.04420971
0.04420971
0.04420971
0.04420971
0.04420971
0.04420971
0.04420971
0.04420971
0.04420971
0.04420971
0.04420971
0.04420971
0.04420971
0.04420971
0.04420971
0.04420971
0.04420971
0.04420971
0.04420971
0.04420971
0.04420971
0.04420971
0.04420971
0.04420971
0.04420971
0.04420971
0.04420971
0.04420971
0.04420971
0.04420971
0.04420971
0.04420971
0.04420971
0.04420971
0.04420971
0.04420971
0.04420971
0.04420971
0.04420971
0.04420971
0.04420971
0.04420971
0.04420971
0.04420971
0.04420971
0.04420971
0.04420971
0.04420971
0.04420971
0.04420971
0.04420971
0.04420971
0.04420971
0.04420971
0.04420971
0.04420971
0.04420971
0.04420971
0.04420971
0.04420971
0.04420971
0.04420971
0.04420971
0.04420971
0.04420971
0.04420971
0.04420971
0.04420971
0.04420971
0.04420971
0.04420971
0.04420971
0.04420971
0.04420971
0.04420971
0.04420971
0.04420971
0.04420971
0.04420971
0.04420971
0.04420971
0.04420971
0.04420971
0.04420971
0.04420971
0.04420971
0.04420971
0.04420971
0.04420971
0.04420971
0.04420971
0.04420971
0.04420971
0.04420971
0.04420971
0.04420971
0.04420971
0.04420971
0.04420971
0.04420971
0.04420971
0.04420971
0.04420971
0.04420971
0.04420971
0.04420971
0.04420971
0.04420971
0.04420971
0.04420971
0.04420971
0.04420971
0.04420971
0.04420971
0.04420971
0.04420971
0.04420971
0.04420971
0.04420971
0.04420971
0.04420971
0.04420971
0.04420971
0.04420971
0.04420971
0.04420971
0.04420971
0.04420971
0.04420971
0.04420971
0.04420971
0.04420971
0.04420971
0.04420971
0.04420971
0.04420971
0.04420971
0.04420971
0.04420971
0.04420971
0.04420971
0.04420971
0.04420971
0.04420971
0.04420971
0.04420971
0.04420971
0.04420971
0.04420971
0.04420971
0.04420971
0.04420971
0.04420971
0.04420971
0.04420971
0.04420971
0.04420971
0.04420971
0.04420971
0.04420971
0.04420971
0.04420971
0.04420971
0.04420971
0.04420971
0.04420971
0.04420971
0.04420971
0.04420971
0.04420971
0.04420971
0.04420971
0.04420971
0.04420971
0.04420971
0.04420971
0.04420971
0.04420971
0.04420971
0.04420971
0.04420971
0.04420971
0.04420971
0.04420971
0.04420971
0.04420971
0.04420971
0.04420971
0.04420971
0.04420971
0.04420971
0.04420971
0.04420971
0.04420971
0.04420971
0.04420971
0.04420971
0.04420971
0.04420971
0.04420971
0.04420971
0.04420971
0.04420971
0.04420971
0.04420971
0.04420971
0.04420971
0.04420971
0.04420971
0.04420971
0.04420971
0.04420971
0.04420971
0.04420971
0.04420971
0.04420971
0.04420971
0.04420971
0.04420971
0.04420971
0.04420971
0.04420971
0.04420971
0.04420971
0.04420971
0.04420971
0.04420971
0.04420971
0.04420971
0.04420971
0.04420971
0.04420971
0.04420971
0.04420971
0.04420971
0.04420971
0.04420971
0.04420971
0.04420971
0.04420971
0.04420971
0.04420971
0.04420971
0.04420971
0.04420971
0.04420971
0.04420971
0.04420971
0.04420971
0.04420971
0.04420971
0.04420971
0.04420971
0.04420971
0.04420971
0.04420971
0.04420971
0.04420971
0.04420971
0.04420971
0.04420971


VECTORS d1 FLOAT
0 0.009738783 0.9999526
-0.02117795 0.03148463 0.9992798
-0.04234014 0.05319498 0.9976861
-0.06346211 0.07484498 0.9951737
-0.08451948 0.09640991 0.9917467
-0.1054881 0.1178653 0.9874108
-0.1263439 0.1391868 0.9821732
-0.1470633 0.1603507 0.976043
-0.1676231 0.1813334 0.9690308
-0.1880003 0.2021119 0.9611486
-0.2081727 0.2226638 0.9524101
-0.2281184 0.2429672 0.9428303
-0.2478163 0.2630008 0.9324257
-0.2672458 0.2827441 0.9212141
-0.286387 0.3021774 0.9092147
-0.305221 0.3212816 0.8964476
-0.3237295 0.3400385 0.8829343
-0.3418949 0.3584309 0.8686974
-0.3597008 0.3764424 0.8537602
-0.3771314 0.3940575 0.8381471
-0.394172 0.4112617 0.8218833
-0.4108088 0.4280416 0.8049947
-0.427029 0.4443845 0.7875079
-0.4428206 0.4602791 0.7694499
-0.4581729 0.4757147 0.7508483
-0.4730758 0.4906819 0.7317312
-0.4875207 0.5051723 0.7121268
-0.5014995 0.5191784 0.6920636
-0.5150053 0.5326939 0.6715704
-0.5280323 0.5457133 0.6506758
-0.5405755 0.5582321 0.6294086
-0.5526308 0.5702469 0.6077974
-0.5641953 0.5817553 0.5858707
-0.5752667 0.5927556 0.5636569
-0.5858438 0.6032471 0.5411838
-0.5959263 0.6132301 0.5184792
-0.6055146 0.6227056 0.4955702
-0.6146098 0.6316755 0.4724836
-0.6232142 0.6401424 0.4492458
-0.6313303 0.6481097 0.4258824
-0.6389618 0.6555816 0.4024185
-0.6461128 0.6625627 0.3788785
-0.6527881 0.6690585 0.3552864
-0.6589931 0.6750751 0.3316651
-0.6647337 0.680619 0.3080371
-0.6700165 0.6856974 0.2844239
-0.6748486 0.6903177 0.2608464
-0.6792372 0.6944882 0.2373245
-0.6831904 0.6982172 0.2138776
-0.6867163 0.7015136 0.1905241
-0.6898237 0.7043864 0.1672814
-0.6925213 0.7068453 0.1441665
-0.6948184 0.7088999 0.1211951
-0.6967245 0.7105603 0.09838254
-0.6982492 0.7118364 0.07574295
-0.6994023 0.7127388 0.05328982
-0.7001939 0.7132778 0.03103583
-0.7006341 0.7134641 0.008992817
-0.700733 0.7133083 -0.01282813
-0.700501 0.712821 -0.03441671
-0.6999484 0.7120131 -0.05576339
-0.6990856 0.7108952 -0.07685935
-0.6979228 0.7094781 -0.09769651
-0.6964704 0.7077724 -0.1182675
-0.6947388 0.7057887 -0.1385656
-0.6927379 0.7035375 -0.1585848
-0.6904781 0.7010293 -0.1783196
-0.6879694 0.6982743 -0.1977654
-0.6852216 0.6952827 -0.2169179
-0.6822446 0.6920644 -0.2357735
-0.6790479 0.6886295 -0.2543292
-0.6756412 0.6849874 -0.2725824
-0.6720338 0.6811478 -0.290531
-0.6682347 0.6771199 -0.3081737
-0.6642531 0.6729128 -0.3255092
-0.6600977 0.6685354 -0.3425369
-0.6557771 0.6639964 -0.3592565
-0.6512997 0.6593041 -0.3756684
-0.6466738 0.6544669 -0.3917729
-0.6419074 0.6494928 -0.4075709
-0.6370082 0.6443894 -0.4230637
-0.6319838 0.6391643 -0.4382528
-0.6268416 0.6338247 -0.4531399
-0.6215888 0.6283778 -0.4677272
-0.6162322 0.6228302 -0.482017
-0.6107787 0.6171885 -0.4960118
-0.6052346 0.6114591 -0.5097145
-0.5996063 0.6056479 -0.5231279
-0.5938999 0.5997609 -0.5362554
-0.5881212 0.5938035 -0.5491001
-0.5822759 0.5877811 -0.5616655
-0.5763694 0.5816988 -0.5739554
-0.570407 0.5755615 -0.5859734
-0.5643938 0.5693738 -0.5977233
-0.5583345 0.56314 -0.6092092
-0.552234 0.5568644 -0.6204351
-0.5460965 0.5505508 -0.6314051
-0.5399265 0.5442031 -0.6421234
-0.533728 0.5378246 -0.6525941
-0.5275051 0.5314187 -0.6628216
-0.5212614 0.5249885 -0.6728103
-0.5150005 0.5185368 -0.6825643
-0.508726 0.5120663 -0.6920881
-0.5024411 0.5055794 -0.701386
-0.496149 0.4990784 -0.7104625
-0.4898527 0.4925654 -0.7193217
-0.483555 0.4860421 -0.7279682
-0.4772586 0.4795104 -0.7364061
-0.4709663 0.4729718 -0.7446398
-0.4646805 0.4664275 -0.7526736
-0.4584035 0.4598787 -0.7605116
-0.4521377 0.4533264 -0.768158
-0.4458851 0.4467714 -0.775617
-0.439648 0.4402144 -0.7828927
-0.4334282 0.4336559 -0.789989
-0.4272276 0.4270962 -0.7969099
-0.4210482 0.4205356 -0.8036593
-0.4148915 0.4139741 -0.810241
-0.4087594 0.4074117 -0.8166587
-0.4026534 0.4008481 -0.8229162
-0.3965752 0.3942829 -0.829017
-0.3905261 0.3877158 -0.8349646
-0.3845079 0.3811461 -0.8407624
-0.3785218 0.3745731 -0.8464137
-0.3725693 0.3679961 -0.8519219
-0.3666519 0.3614141 -0.85729
-0.360771 0.3548261 -0.8625211
-0.3549279 0.3482309 -0.8676182
-0.3491241 0.3416275 -0.8725841
-0.343361 0.3350144 -0.8774216
-0.33764 0.3283903 -0.8821332
-0.3319625 0.3217537 -0.8867217
-0.3263302 0.3151032 -0.8911894
-0.3207444 0.308437 -0.8955387
-0.3152069 0.3017536 -0.8997718
-0.3097191 0.2950513 -0.9038909
-0.304283 0.2883281 -0.907898
-0.2989002 0.2815823 -0.911795
-0.2935727 0.274812 -0.9155837
-0.2883024 0.2680153 -0.9192658
-0.2830914 0.2611901 -0.9228429
-0.277942 0.2543345 -0.9263165
-0.2728566 0.2474464 -0.9296879
-0.2678375 0.2405237 -0.9329584
-0.2628876 0.2335643 -0.9361292
-0.2580095 0.2265661 -0.9392012
-0.2532065 0.219527 -0.9421753
-0.2484818 0.2124448 -0.9450524
-0.2438388 0.2053174 -0.947833
-0.2392813 0.1981426 -0.9505177
-0.2348134 0.1909183 -0.953107
-0.2304393 0.1836425 -0.9556009
-0.2261638 0.176313 -0.9579998
-0.2219918 0.168928 -0.9603036
-0.2179287 0.1614855 -0.9625121
-0.2139803 0.1539837 -0.964625
-0.2101529 0.1464209 -0.966642
-0.206453 0.1387957 -0.9685623
-0.2028879 0.1311067 -0.9703852
-0.1994653 0.1233528 -0.9721099
-0.1961934 0.1155332 -0.9737352
-0.1930808 0.1076475 -0.9752599
-0.190137 0.09969569 -0.9766825
-0.1873715 0.09167818 -0.9780015
-0.1847947 0.08359599 -0.9792153
-0.1824173 0.0754508 -0.9803219
-0.1802499 0.06724501 -0.9813196
-0.1783037 0.05898186 -0.9822061
-0.1765895 0.05066549 -0.9829797
-0.1751178 0.04230099 -0.9836383
-0.1738984 0.03389443 -0.9841801
-0.1729399 0.02545282 -0.9846034
-0.1722497 0.01698405 -0.9849069
-0.1718333 0.008496734 -0.9850894
-0.1716941 1.779562e-09 -0.9851503
-0.1718333 -0.008496731 -0.9850894
-0.1722497 -0.01698405 -0.9849069
-0.1729399 -0.02545282 -0.9846034
-0.1738984 -0.03389443 -0.9841801
-0.1751178 -0.04230099 -0.9836383
-0.1765895 -0.05066549 -0.9829797
-0.1783037 -0.05898186 -0.9822061
-0.1802499 -0.06724501 -0.9813196
-0.1824173 -0.0754508 -0.9803219
-0.1847947 -0.08359599 -0.9792153
-0.1873715 -0.09167818 -0.9780015
-0.190137 -0.09969569 -0.9766825
-0.1930808 -0.1076475 -0.9752599
-0.1961934 -0.1155332 -0.9737352
-0.1994653 -0.1233527 -0.9721099
-0.2028879 -0.1311066 -0.9703852
-0.206453 -0.1387957 -0.9685623
-0.2101529 -0.1464209 -0.966642
-0.2139803 -0.1539837 -0.964625
-0.2179287 -0.1614855 -0.9625121
-0.2219918 -0.168928 -0.9603036
-0.2261638 -0.176313 -0.9579998
-0.2304393 -0.1836425 -0.9556009
-0.2348134 -0.1909183 -0.953107
-0.2392813 -0.1981426 -0.9505177
-0.2438388 -0.2053174 -0.947833
-0.2484818 -0.2124448 -0.9450524
-0.2532065 -0.219527 -0.9421753
-0.2580095 -0.2265661 -0.9392012
-0.2628876 -0.2335643 -0.9361292
-0.2678375 -0.2405237 -0.9329584
-0.2728566 -0.2474464 -0.9296879
-0.277942 -0.2543345 -0.9263165
-0.2830914 -0.2611901 -0.9228429
-0.2883024 -0.2680153 -0.9192658
-0.2935727 -0.274812 -0.9155837
-0.2989002 -0.2815823 -0.911795
-0.304283 -0.2883281 -0.907898
-0.3097191 -0.2950513 -0.9038909
-0.3152069 -0.3017536 -0.8997718
-0.3207444 -0.308437 -0.8955387
-0.3263302 -0.3151032 -0.8911894
-0.3319625 -0.3217537 -0.8867217
-0.33764 -0.3283903 -0.8821333
-0.343361 -0.3350144 -0.8774216
-0.3491241 -0.3416275 -0.8725841
-0.3549279 -0.3482309 -0.8676182
-0.360771 -0.3548261 -0.8625211
-0.3666519 -0.3614141 -0.85729
-0.3725693 -0.3679961 -0.8519219
-0.3785218 -0.3745731 -0.8464137
-0.3845079 -0.3811461 -0.8407624
-0.3905261 -0.3877158 -0.8349646
-0.3965751 -0.3942829 -0.829017
-0.4026534 -0.4008481 -0.8229162
-0.4087594 -0.4074117 -0.8166587