# vtk DataFile Version 2.0
Written badly by Kevin Korner
ASCII
DATASET POLYDATA
POINTS 350 FLOAT
0 0 0
0.00286533 0 0
0.005730497 2.557593e-05 1.654108e-05
0.008595181 7.67838e-05 4.940249e-05
0.01145906 0.0001536746 9.836225e-05
0.01432182 0.0002562943 0.0001631972
0.01718314 0.0003846841 0.0002436832
0.02004271 0.0005388801 0.0003395949
0.02290021 0.0007189138 0.0004507062
0.02575535 0.000924812 0.0005767901
0.02860782 0.001156597 0.0007176188
0.03145731 0.001414285 0.0008729636
0.03430352 0.00169789 0.001042595
0.03714615 0.002007421 0.001226285
0.03998491 0.00234288 0.0014238
0.04281951 0.002704268 0.001634913
0.04564965 0.003091579 0.00185939
0.04847505 0.003504806 0.002097
0.05129543 0.003943934 0.002347513
0.0541105 0.004408946 0.002610695
0.05691998 0.004899822 0.002886315
0.0597236 0.005416534 0.00317414
0.06252108 0.005959056 0.003473939
0.06531216 0.006527352 0.003785479
0.06809655 0.007121387 0.004108528
0.07087401 0.00774112 0.004442854
0.07364427 0.008386505 0.004788224
0.07640706 0.009057497 0.005144409
0.07916213 0.009754042 0.005511175
0.08190923 0.01047609 0.005888293
0.0846481 0.01122357 0.006275531
0.0873785 0.01199644 0.00667266
0.09010018 0.01279462 0.007079449
0.0928129 0.01361804 0.00749567
0.09551642 0.01446664 0.007921093
0.0982105 0.01534034 0.008355491
0.1008949 0.01623906 0.008798635
0.1035694 0.01716273 0.0092503
0.1062338 0.01811125 0.009710259
0.1088878 0.01908455 0.01017829
0.1115312 0.02008253 0.01065416
0.1141638 0.02110511 0.01113765
0.1167854 0.02215218 0.01162854
0.1193958 0.02322366 0.0121266
0.1219947 0.02431943 0.01263162
0.1245819 0.02543941 0.01314337
0.1271573 0.02658348 0.01366163
0.1297206 0.02775154 0.01418619
0.1322717 0.02894348 0.01471683
0.1348103 0.03015919 0.01525332
0.1373362 0.03139855 0.01579547
0.1398492 0.03266145 0.01634304
0.1423492 0.03394777 0.01689584
0.1448359 0.03525739 0.01745364
0.1473092 0.03659019 0.01801623
0.1497689 0.03794604 0.01858341
0.1522148 0.03932482 0.01915497
0.1546467 0.0407264 0.01973069
0.1570645 0.04215065 0.02031038
0.1594679 0.04359744 0.02089383
0.1618569 0.04506664 0.02148083
0.1642311 0.04655811 0.02207117
0.1665906 0.04807171 0.02266467
0.168935 0.0496073 0.02326112
0.1712642 0.05116475 0.02386032
0.1735782 0.05274392 0.02446206
0.1758766 0.05434465 0.02506617
0.1781594 0.05596682 0.02567243
0.1804264 0.05761026 0.02628066
0.1826774 0.05927484 0.02689067
0.1849124 0.0609604 0.02750226
0.1871311 0.06266679 0.02811524
0.1893333 0.06439387 0.02872943
0.1915191 0.06614148 0.02934463
0.1936882 0.06790946 0.02996067
0.1958404 0.06969767 0.03057735
0.1979757 0.07150594 0.03119449
0.2000939 0.07333412 0.03181192
0.2021948 0.07518204 0.03242945
0.2042784 0.07704956 0.0330469
0.2063444 0.0789365 0.0336641
0.2083929 0.0808427 0.03428086
0.2104235 0.08276801 0.03489701
0.2124363 0.08471226 0.03551239
0.2144311 0.08667528 0.03612681
0.2164078 0.0886569 0.03674011
0.2183662 0.09065697 0.03735211
0.2203062 0.0926753 0.03796265
0.2222277 0.09471174 0.03857157
0.2241306 0.09676611 0.03917869
0.2260148 0.09883824 0.03978385
0.2278802 0.100928 0.04038689
0.2297266 0.1030351 0.04098764
0.2315539 0.1051595 0.04158596
0.2333621 0.1073009 0.04218167
0.2351509 0.1094592 0.04277463
0.2369204 0.1116343 0.04336467
0.2386704 0.1138259 0.04395164
0.2404009 0.1160338 0.04453539
0.2421116 0.118258 0.04511577
0.2438025 0.1204981 0.04569262
0.2454735 0.122754 0.04626581
0.2471245 0.1250256 0.04683517
0.2487554 0.1273127 0.04740057
0.2503661 0.129615 0.04796185
0.2519565 0.1319324 0.04851888
0.2535266 0.1342647 0.04907152
0.2550761 0.1366118 0.04961962
0.2566051 0.1389733 0.05016304
0.2581134 0.1413492 0.05070166
0.259601 0.1437393 0.05123532
0.2610678 0.1461433 0.0517639
0.2625136 0.1485611 0.05228726
0.2639384 0.1509925 0.05280527
0.2653421 0.1534373 0.0533178
0.2667246 0.1558953 0.05382473
0.2680859 0.1583664 0.05432591
0.2694258 0.1608502 0.05482124
0.2707443 0.1633466 0.05531058
0.2720412 0.1658555 0.05579381
0.2733166 0.1683766 0.05627081
0.2745703 0.1709098 0.05674145
0.2758023 0.1734547 0.05720563
0.2770125 0.1760113 0.05766322
0.2782007 0.1785794 0.05811411
0.279367 0.1811587 0.05855818
0.2805113 0.183749 0.05899533
0.2816334 0.1863501 0.05942544
0.2827334 0.1889619 0.0598484
0.2838111 0.191584 0.0602641
0.2848665 0.1942164 0.06067245
0.2858995 0.1968588 0.06107333
0.2869101 0.1995111 0.06146665
0.2878981 0.2021729 0.0618523
0.2888635 0.204844 0.06223018
0.2898063 0.2075244 0.06260021
0.2907264 0.2102137 0.06296227
0.2916237 0.2129118 0.06331629
0.2924982 0.2156184 0.06366216
0.2933498 0.2183334 0.06399981
0.2941784 0.2210564 0.06432913
0.294984 0.2237874 0.06465005
0.2957666 0.226526 0.06496248
0.2965261 0.2292721 0.06526634
0.2972624 0.2320254 0.06556155
0.2979754 0.2347858 0.06584804
0.2986652 0.2375529 0.06612572
0.2993317 0.2403267 0.06639452
0.2999749 0.2431068 0.06665438
0.3005946 0.245893 0.06690522
0.3011908 0.2486852 0.06714698
0.3017636 0.251483 0.06737959
0.3023128 0.2542863 0.06760298
0.3028385 0.2570949 0.06781711
0.3033405 0.2599085 0.06802191
0.3038189 0.2627268 0.06821732
0.3042735 0.2655497 0.0684033
0.3047045 0.2683769 0.06857979
0.3051117 0.2712083 0.06874674
0.3054951 0.2740435 0.06890412
0.3058547 0.2768823 0.06905187
0.3061904 0.2797245 0.06918995
0.3065023 0.28257 0.06931833
0.3067902 0.2854183 0.06943698
0.3070543 0.2882694 0.06954585
0.3072944 0.2911229 0.06964492
0.3075106 0.2939787 0.06973416
0.3077027 0.2968364 0.06981355
0.3078709 0.299696 0.06988306
0.3080151 0.3025571 0.06994268
0.3081353 0.3054194 0.06999239
0.3082315 0.3082829 0.07003218
0.3083036 0.3111472 0.07006202
0.3083517 0.314012 0.07008193
0.3083757 0.3168772 0.07009188
0.3083757 0.3197426 0.07009188
0.3083517 0.3226078 0.07008193
0.3083036 0.3254726 0.07006202
0.3082315 0.3283369 0.07003218
0.3081353 0.3312003 0.06999239
0.3080151 0.3340627 0.06994268
0.3078709 0.3369238 0.06988306
0.3077027 0.3397833 0.06981355
0.3075106 0.3426411 0.06973416
0.3072944 0.3454969 0.06964492
0.3070543 0.3483504 0.06954585
0.3067902 0.3512015 0.06943698
0.3065023 0.3540498 0.06931833
0.3061904 0.3568952 0.06918995
0.3058547 0.3597375 0.06905187
0.3054951 0.3625763 0.06890412
0.3051117 0.3654115 0.06874674
0.3047045 0.3682428 0.06857979
0.3042735 0.3710701 0.0684033
0.3038189 0.373893 0.06821732
0.3033405 0.3767113 0.06802191
0.3028385 0.3795249 0.06781711
0.3023128 0.3823334 0.06760298
0.3017636 0.3851367 0.06737959
0.3011908 0.3879346 0.06714698
0.3005946 0.3907267 0.06690522
0.2999749 0.393513 0.06665438
0.2993317 0.3962931 0.06639452
0.2986652 0.3990668 0.06612572
0.2979754 0.401834 0.06584804
0.2972624 0.4045943 0.06556155
0.2965261 0.4073477 0.06526634
0.2957666 0.4100938 0.06496248
0.294984 0.4128324 0.06465005
0.2941784 0.4155633 0.06432913
0.2933498 0.4182864 0.06399981
0.2924982 0.4210013 0.06366216
0.2916237 0.423708 0.06331629
0.2907264 0.426406 0.06296227
0.2898063 0.4290954 0.06260021
0.2888635 0.4317757 0.06223018
0.2878981 0.4344469 0.0618523
0.2869101 0.4371087 0.06146665
0.2858995 0.4397609 0.06107333
0.2848665 0.4424033 0.06067245
0.2838111 0.4450357 0.0602641
0.2827334 0.4476579 0.0598484
0.2816334 0.4502697 0.05942544
0.2805113 0.4528708 0.05899533
0.279367 0.4554611 0.05855818
0.2782007 0.4580404 0.05811411
0.2770125 0.4606084 0.05766322
0.2758023 0.463165 0.05720563
0.2745703 0.46571 0.05674145
0.2733166 0.4682432 0.05627081
0.2720412 0.4707643 0.05579381
0.2707443 0.4732731 0.05531058
0.2694258 0.4757696 0.05482124
0.2680859 0.4782534 0.05432591
0.2667246 0.4807244 0.05382473
0.2653421 0.4831824 0.0533178
0.2639384 0.4856272 0.05280527
0.2625136 0.4880586 0.05228726
0.2610678 0.4904764 0.0517639
0.259601 0.4928805 0.05123532
0.2581134 0.4952705 0.05070166
0.2566051 0.4976465 0.05016304
0.2550761 0.500008 0.04961962
0.2535266 0.5023551 0.04907152
0.2519565 0.5046874 0.04851888
0.2503661 0.5070048 0.04796185
0.2487554 0.5093071 0.04740057
0.2471245 0.5115941 0.04683517
0.2454735 0.5138657 0.04626581
0.2438025 0.5161217 0.04569262
0.2421116 0.5183618 0.04511577
0.2404009 0.5205859 0.04453539
0.2386705 0.5227939 0.04395164
0.2369204 0.5249855 0.04336467
0.2351509 0.5271605 0.04277463
0.2333621 0.5293189 0.04218167
0.2315539 0.5314603 0.04158596
0.2297266 0.5335847 0.04098764
0.2278802 0.5356918 0.04038689
0.2260148 0.5377815 0.03978385
0.2241306 0.5398537 0.03917869
0.2222277 0.541908 0.03857157
0.2203062 0.5439445 0.03796265
0.2183662 0.5459628 0.03735211
0.2164078 0.5479629 0.03674011
0.2144311 0.5499445 0.03612681
0.2124363 0.5519075 0.03551239
0.2104235 0.5538518 0.03489701
0.2083929 0.5557771 0.03428086
0.2063444 0.5576833 0.0336641
0.2042784 0.5595702 0.0330469
0.2021948 0.5614377 0.03242945
0.2000939 0.5632857 0.03181192
0.1979757 0.5651138 0.03119449
0.1958404 0.5669221 0.03057735
0.1936882 0.5687103 0.02996067
0.1915191 0.5704783 0.02934463
0.1893333 0.5722259 0.02872943
0.1871311 0.573953 0.02811524
0.1849124 0.5756594 0.02750226
0.1826774 0.5773449 0.02689067
0.1804264 0.5790095 0.02628066
0.1781594 0.580653 0.02567243
0.1758766 0.5822751 0.02506617
0.1735782 0.5838759 0.02446206
0.1712642 0.585455 0.02386032
0.168935 0.5870125 0.02326112
0.1665906 0.5885481 0.02266467
0.1642311 0.5900617 0.02207117
0.1618569 0.5915531 0.02148082
0.1594679 0.5930223 0.02089383
0.1570645 0.5944691 0.02031038
0.1546467 0.5958934 0.01973069
0.1522148 0.597295 0.01915497
0.1497689 0.5986737 0.01858341
0.1473092 0.6000296 0.01801623
0.1448359 0.6013624 0.01745364
0.1423492 0.602672 0.01689584
0.1398492 0.6039583 0.01634304
0.1373362 0.6052212 0.01579547
0.1348103 0.6064606 0.01525332
0.1322717 0.6076763 0.01471683
0.1297206 0.6088682 0.01418619
0.1271573 0.6100363 0.01366163
0.1245819 0.6111804 0.01314337
0.1219947 0.6123003 0.01263162
0.1193958 0.6133961 0.0121266
0.1167854 0.6144676 0.01162854
0.1141638 0.6155147 0.01113765
0.1115312 0.6165372 0.01065416
0.1088878 0.6175352 0.01017829
0.1062338 0.6185085 0.009710259
0.1035694 0.619457 0.0092503
0.1008949 0.6203807 0.008798635
0.0982105 0.6212794 0.008355491
0.09551642 0.6221531 0.007921093
0.0928129 0.6230017 0.00749567
0.09010018 0.6238252 0.007079449
0.0873785 0.6246233 0.00667266
0.0846481 0.6253962 0.006275531
0.08190923 0.6261437 0.005888293
0.07916213 0.6268657 0.005511175
0.07640706 0.6275623 0.005144409
0.07364427 0.6282333 0.004788224
0.07087401 0.6288787 0.004442854
0.06809655 0.6294984 0.004108528
0.06531216 0.6300924 0.003785479
0.06252108 0.6306607 0.003473939
0.0597236 0.6312032 0.003174141
0.05691998 0.63172 0.002886315
0.0541105 0.6322108 0.002610695
0.05129543 0.6326758 0.002347513
0.04847505 0.633115 0.002097
0.04564965 0.6335282 0.00185939
0.04281951 0.6339155 0.001634913
0.03998491 0.6342769 0.0014238
0.03714615 0.6346124 0.001226285
0.03430352 0.6349219 0.001042595
0.03145731 0.6352055 0.0008729636
0.02860782 0.6354632 0.0007176188
0.02575535 0.635695 0.0005767901
0.02290021 0.6359009 0.0004507062
0.02004271 0.6360809 0.0003395949
0.01718314 0.6362351 0.0002436832
0.01432182 0.6363635 0.0001631972
0.01145906 0.6364661 9.836225e-05
0.008595181 0.636543 4.940249e-05
0.005730497 0.6365942 1.654108e-05
0.00286533 0.6366198 0
0 0.6366198 0

LINES 349 1047
2 0 1
2 1 2
2 2 3
2 3 4
2 4 5
2 5 6
2 6 7
2 7 8
2 8 9
2 9 10
2 10 11
2 11 12
2 12 13
2 13 14
2 14 15
2 15 16
2 16 17
2 17 18
2 18 19
2 19 20
2 20 21
2 21 22
2 22 23
2 23 24
2 24 25
2 25 26
2 26 27
2 27 28
2 28 29
2 29 30
2 30 31
2 31 32
2 32 33
2 33 34
2 34 35
2 35 36
2 36 37
2 37 38
2 38 39
2 39 40
2 40 41
2 41 42
2 42 43
2 43 44
2 44 45
2 45 46
2 46 47
2 47 48
2 48 49
2 49 50
2 50 51
2 51 52
2 52 53
2 53 54
2 54 55
2 55 56
2 56 57
2 57 58
2 58 59
2 59 60
2 60 61
2 61 62
2 62 63
2 63 64
2 64 65
2 65 66
2 66 67
2 67 68
2 68 69
2 69 70
2 70 71
2 71 72
2 72 73
2 73 74
2 74 75
2 75 76
2 76 77
2 77 78
2 78 79
2 79 80
2 80 81
2 81 82
2 82 83
2 83 84
2 84 85
2 85 86
2 86 87
2 87 88
2 88 89
2 89 90
2 90 91
2 91 92
2 92 93
2 93 94
2 94 95
2 95 96
2 96 97
2 97 98
2 98 99
2 99 100
2 100 101
2 101 102
2 102 103
2 103 104
2 104 105
2 105 106
2 106 107
2 107 108
2 108 109
2 109 110
2 110 111
2 111 112
2 112 113
2 113 114
2 114 115
2 115 116
2 116 117
2 117 118
2 118 119
2 119 120
2 120 121
2 121 122
2 122 123
2 123 124
2 124 125
2 125 126
2 126 127
2 127 128
2 128 129
2 129 130
2 130 131
2 131 132
2 132 133
2 133 134
2 134 135
2 135 136
2 136 137
2 137 138
2 138 139
2 139 140
2 140 141
2 141 142
2 142 143
2 143 144
2 144 145
2 145 146
2 146 147
2 147 148
2 148 149
2 149 150
2 150 151
2 151 152
2 152 153
2 153 154
2 154 155
2 155 156
2 156 157
2 157 158
2 158 159
2 159 160
2 160 161
2 161 162
2 162 163
2 163 164
2 164 165
2 165 166
2 166 167
2 167 168
2 168 169
2 169 170
2 170 171
2 171 172
2 172 173
2 173 174
2 174 175
2 175 176
2 176 177
2 177 178
2 178 179
2 179 180
2 180 181
2 181 182
2 182 183
2 183 184
2 184 185
2 185 186
2 186 187
2 187 188
2 188 189
2 189 190
2 190 191
2 191 192
2 192 193
2 193 194
2 194 195
2 195 196
2 196 197
2 197 198
2 198 199
2 199 200
2 200 201
2 201 202
2 202 203
2 203 204
2 204 205
2 205 206
2 206 207
2 207 208
2 208 209
2 209 210
2 210 211
2 211 212
2 212 213
2 213 214
2 214 215
2 215 216
2 216 217
2 217 218
2 218 219
2 219 220
2 220 221
2 221 222
2 222 223
2 223 224
2 224 225
2 225 226
2 226 227
2 227 228
2 228 229
2 229 230
2 230 231
2 231 232
2 232 233
2 233 234
2 234 235
2 235 236
2 236 237
2 237 238
2 238 239
2 239 240
2 240 241
2 241 242
2 242 243
2 243 244
2 244 245
2 245 246
2 246 247
2 247 248
2 248 249
2 249 250
2 250 251
2 251 252
2 252 253
2 253 254
2 254 255
2 255 256
2 256 257
2 257 258
2 258 259
2 259 260
2 260 261
2 261 262
2 262 263
2 263 264
2 264 265
2 265 266
2 266 267
2 267 268
2 268 269
2 269 270
2 270 271
2 271 272
2 272 273
2 273 274
2 274 275
2 275 276
2 276 277
2 277 278
2 278 279
2 279 280
2 280 281
2 281 282
2 282 283
2 283 284
2 284 285
2 285 286
2 286 287
2 287 288
2 288 289
2 289 290
2 290 291
2 291 292
2 292 293
2 293 294
2 294 295
2 295 296
2 296 297
2 297 298
2 298 299
2 299 300
2 300 301
2 301 302
2 302 303
2 303 304
2 304 305
2 305 306
2 306 307
2 307 308
2 308 309
2 309 310
2 310 311
2 311 312
2 312 313
2 313 314
2 314 315
2 315 316
2 316 317
2 317 318
2 318 319
2 319 320
2 320 321
2 321 322
2 322 323
2 323 324
2 324 325
2 325 326
2 326 327
2 327 328
2 328 329
2 329 330
2 330 331
2 331 332
2 332 333
2 333 334
2 334 335
2 335 336
2 336 337
2 337 338
2 338 339
2 339 340
2 340 341
2 341 342
2 342 343
2 343 344
2 344 345
2 345 346
2 346 347
2 347 348
2 348 349


POINT_DATA 350
SCALARS a FLOAT 1
LOOKUP_TABLE default
0.0005894628
0.0005894628
0.0005894628
0.0005894628
0.0005894628
0.0005894628
0.0005894628
0.0005894628
0.0005894628
0.0005894628
0.0005894628
0.0005894628
0.0005894628
0.0005894628
0.0005894628
0.0005894628
0.0005894628
0.0005894628
0.0005894628
0.0005894628
0.0005894628
0.0005894628
0.0005894628
0.0005894628
0.0005894628
0.0005894628
0.0005894628
0.0005894628
0.0005894628
0.0005894628
0.0005894628
0.0005894628
0.0005894628
0.0005894628
0.0005894628
0.0005894628
0.0005894628
0.0005894628
0.0005894628
0.0005894628
0.0005894628
0.0005894628
0.0005894628
0.0005894628
0.0005894628
0.0005894628
0.0005894628
0.0005894628
0.0005894628
0.0005894628
0.0005894628
0.0005894628
0.0005894628
0.0005894628
0.0005894628
0.0005894628
0.0005894628
0.0005894628
0.0005894628
0.0005894628
0.0005894628
0.0005894628
0.0005894628
0.0005894628
0.0005894628
0.0005894628
0.0005894628
0.0005894628
0.0005894628
0.0005894628
0.0005894628
0.0005894628
0.0005894628
0.0005894628
0.0005894628
0.0005894628
0.0005894628
0.0005894628
0.0005894628
0.0005894628
0.0005894628
0.0005894628
0.0005894628
0.0005894628
0.0005894628
0.0005894628
0.0005894628
0.0005894628
0.0005894628
0.0005894628
0.0005894628
0.0005894628
0.0005894628
0.0005894628
0.0005894628
0.0005894628
0.0005894628
0.0005894628
0.0005894628
0.0005894628
0.0005894628
0.0005894628
0.0005894628
0.0005894628
0.0005894628
0.0005894628
0.0005894628
0.0005894628
0.0005894628
0.0005894628
0.0005894628
0.0005894628
0.0005894628
0.0005894628
0.0005894628
0.0005894628
0.0005894628
0.0005894628
0.0005894628
0.0005894628
0.0005894628
0.0005894628
0.0005894628
0.0005894628
0.0005894628
0.0005894628
0.0005894628
0.0005894628
0.0005894628
0.0005894628
0.0005894628
0.0005894628
0.0005894628
0.0005894628
0.0005894628
0.0005894628
0.0005894628
0.0005894628
0.0005894628
0.0005894628
0.0005894628
0.0005894628
0.0005894628
0.0005894628
0.0005894628
0.0005894628
0.0005894628
0.0005894628
0.0005894628
0.0005894628
0.0005894628
0.0005894628
0.0005894628
0.0005894628
0.0005894628
0.0005894628
0.0005894628
0.0005894628
0.0005894628
0.0005894628
0.0005894628
0.0005894628
0.0005894628
0.0005894628
0.0005894628
0.0005894628
0.0005894628
0.0005894628
0.0005894628
0.0005894628
0.0005894628
0.0005894628
0.0005894628
0.0005894628
0.0005894628
0.0005894628
0.0005894628
0.0005894628
0.0005894628
0.0005894628
0.0005894628
0.0005894628
0.0005894628
0.0005894628
0.0005894628
0.0005894628
0.0005894628
0.0005894628
0.0005894628
0.0005894628
0.0005894628
0.0005894628
0.0005894628
0.0005894628
0.0005894628
0.0005894628
0.0005894628
0.0005894628
0.0005894628
0.0005894628
0.0005894628
0.0005894628
0.0005894628
0.0005894628
0.0005894628
0.0005894628
0.0005894628
0.0005894628
0.0005894628
0.0005894628
0.0005894628
0.0005894628
0.0005894628
0.0005894628
0.0005894628
0.0005894628
0.0005894628
0.0005894628
0.0005894628
0.0005894628
0.0005894628
0.0005894628
0.0005894628
0.0005894628
0.0005894628
0.0005894628
0.0005894628
0.0005894628
0.0005894628
0.0005894628
0.0005894628
0.0005894628
0.0005894628
0.0005894628
0.0005894628
0.0005894628
0.0005894628
0.0005894628
0.0005894628
0.0005894628
0.0005894628
0.0005894628
0.0005894628
0.0005894628
0.0005894628
0.0005894628
0.0005894628
0.0005894628
0.0005894628
0.0005894628
0.0005894628
0.0005894628
0.0005894628
0.0005894628
0.0005894628
0.0005894628
0.0005894628
0.0005894628
0.0005894628
0.0005894628
0.0005894628
0.0005894628
0.0005894628
0.0005894628
0.0005894628
0.0005894628
0.0005894628
0.0005894628
0.0005894628
0.0005894628
0.0005894628
0.0005894628
0.0005894628
0.0005894628
0.0005894628
0.0005894628
0.0005894628
0.0005894628
0.0005894628
0.0005894628
0.0005894628
0.0005894628
0.0005894628
0.0005894628
0.0005894628
0.0005894628
0.0005894628
0.0005894628
0.0005894628
0.0005894628
0.0005894628
0.0005894628
0.0005894628
0.0005894628
0.0005894628
0.0005894628
0.0005894628
0.0005894628
0.0005894628
0.0005894628
0.0005894628
0.0005894628
0.0005894628
0.0005894628
0.0005894628
0.0005894628
0.0005894628
0.0005894628
0.0005894628
0.0005894628
0.0005894628
0.0005894628
0.0005894628
0.0005894628
0.0005894628
0.0005894628
0.0005894628
0.0005894628
0.0005894628
0.0005894628
0.0005894628
0.0005894628
0.0005894628
0.0005894628
0.0005894628
0.0005894628
0.0005894628
0.0005894628
0.0005894628
0.0005894628
0.0005894628
0.0005894628
0.0005894628
0.0005894628
0.0005894628
0.0005894628
0.0005894628
0.0005894628
0.0005894628
0.0005894628
0.0005894628
0.0005894628
0.0005894628
0.0005894628
0.0005894628
0.0005894628
0.0005894628
0.0005894628
0.0005894628
0.0005894628


SCALARS b FLOAT 1
LOOKUP_TABLE default
0.04420971
0.04420971
0.04420971
0.04420971
0.04420971
0.04420971
0.04420971
0.04420971
0.04420971
0.04420971
0.04420971
0.04420971
0.04420971
0.04420971
0.04420971
0.04420971
0.04420971
0.04420971
0.04420971
0.04420971
0.04420971
0.04420971
0.04420971
0.04420971
0.04420971
0.04420971
0.04420971
0.04420971
0.04420971
0.04420971
0.04420971
0.04420971
0.04420971
0.04420971
0.04420971
0.04420971
0.04420971
0.04420971
0.04420971
0.04420971
0.04420971
0.04420971
0.04420971
0.04420971
0.04420971
0.04420971
0.04420971
0.04420971
0.04420971
0.04420971
0.04420971
0.04420971
0.04420971
0.04420971
0.04420971
0.04420971
0.04420971
0.04420971
0.04420971
0.04420971
0.04420971
0.04420971
0.04420971
0.04420971
0.04420971
0.04420971
0.04420971
0.04420971
0.04420971
0.04420971
0.04420971
0.04420971
0.04420971
0.04420971
0.04420971
0.04420971
0.04420971
0.04420971
0.04420971
0.04420971
0.04420971
0.04420971
0.04420971
0.04420971
0.04420971
0.04420971
0.04420971
0.04420971
0.04420971
0.04420971
0.04420971
0.04420971
0.04420971
0.04420971
0.04420971
0.04420971
0.04420971
0.04420971
0.04420971
0.04420971
0.04420971
0.04420971
0.04420971
0.04420971
0.04420971
0.04420971
0.04420971
0.04420971
0.04420971
0.04420971
0.04420971
0.04420971
0.04420971
0.04420971
0.04420971
0.04420971
0.04420971
0.04420971
0.04420971
0.04420971
0.04420971
0.04420971
0.04420971
0.04420971
0.04420971
0.04420971
0.04420971
0.04420971
0.04420971
0.04420971
0.04420971
0.04420971
0.04420971
0.04420971
0.04420971
0.04420971
0.04420971
0.04420971
0.04420971
0.04420971
0.04420971
0.04420971
0.04420971
0.04420971
0.04420971
0.04420971
0.04420971
0.04420971
0.04420971
0.04420971
0.04420971
0.04420971
0.04420971
0.04420971
0.04420971
0.04420971
0.04420971
0.04420971
0.04420971
0.04420971
0.04420971
0.04420971
0.04420971
0.04420971
0.04420971
0.04420971
0.04420971
0.04420971
0.04420971
0.04420971
0.04420971
0.04420971
0.04420971
0.04420971
0.04420971
0.04420971
0.04420971
0.04420971
0.04420971
0.04420971
0.04420971
0.04420971
0.04420971
0.04420971
0.04420971
0.04420971
0.04420971
0.04420971
0.04420971
0.04420971
0.04420971
0.04420971
0.04420971
0.04420971
0.04420971
0.04420971
0.04420971
0.04420971
0.04420971
0.04420971
0.04420971
0.04420971
0.04420971
0.04420971
0.04420971
0.04420971
0.04420971
0.04420971
0.04420971
0.04420971
0.04420971
0.04420971
0.04420971
0.04420971
0.04420971
0.04420971
0.04420971
0.04420971
0.04420971
0.04420971
0.04420971
0.04420971
0.04420971
0.04420971
0.04420971
0.04420971
0.04420971
0.04420971
0.04420971
0.04420971
0.04420971
0.04420971
0.04420971
0.04420971
0.04420971
0.04420971
0.04420971
0.04420971
0.04420971
0.04420971
0.04420971
0.04420971
0.04420971
0.04420971
0.04420971
0.04420971
0.04420971
0.04420971
0.04420971
0.04420971
0.04420971
0.04420971
0.04420971
0.04420971
0.04420971
0.04420971
0.04420971
0.04420971
0.04420971
0.04420971
0.04420971
0.04420971
0.04420971
0.04420971
0.04420971
0.04420971
0.04420971
0.04420971
0.04420971
0.04420971
0.04420971
0.04420971
0.04420971
0.04420971
0.04420971
0.04420971
0.04420971
0.04420971
0.04420971
0.04420971
0.04420971
0.04420971
0.04420971
0.04420971
0.04420971
0.04420971
0.04420971
0.04420971
0.04420971
0.04420971
0.04420971
0.04420971
0.04420971
0.04420971
0.04420971
0.04420971
0.04420971
0.04420971
0.04420971
0.04420971
0.04420971
0.04420971
0.04420971
0.04420971
0.04420971
0.04420971
0.04420971
0.04420971
0.04420971
0.04420971
0.04420971
0.04420971
0.04420971
0.04420971
0.04420971
0.04420971
0.04420971
0.04420971
0.04420971
0.04420971
0.04420971
0.04420971
0.04420971
0.04420971
0.04420971
0.04420971
0.04420971
0.04420971
0.04420971
0.04420971
0.04420971
0.04420971
0.04420971
0.04420971
0.04420971
0.04420971
0.04420971
0.04420971
0.04420971
0.04420971
0.04420971
0.04420971
0.04420971
0.04420971
0.04420971
0.04420971
0.04420971
0.04420971
0.04420971
0.04420971


VECTORS d1 FLOAT
0 0.8376997 0.5461312
-0.01063004 0.841514 0.5401307
-0.0212344 0.8451792 0.5340611
-0.03181137 0.8486955 0.5279242
-0.04235928 0.8520634 0.5217218
-0.05287649 0.8552833 0.5154557
-0.0633614 0.8583556 0.5091276
-0.07381244 0.8612809 0.5027394
-0.08422805 0.8640596 0.4962928
-0.09460673 0.8666924 0.4897897
-0.104947 0.8691797 0.4832316
-0.1152474 0.8715222 0.4766205
-0.1255066 0.8737205 0.4699581
-0.1357231 0.8757753 0.4632461
-0.1458956 0.8776872 0.4564862
-0.1560228 0.879457 0.4496802
-0.1661034 0.8810854 0.4428297
-0.1761361 0.8825732 0.4359365
-0.1861198 0.883921 0.4290023
-0.1960532 0.8851298 0.4220288
-0.2059352 0.8862004 0.4150176
-0.2157647 0.8871335 0.4079703
-0.2255405 0.88793 0.4008887
-0.2352617 0.8885909 0.3937743
-0.2449271 0.8891169 0.3866289
-0.2545358 0.889509 0.3794539
-0.2640868 0.8897682 0.372251
-0.2735792 0.8898952 0.3650218
-0.283012 0.8898912 0.3577678
-0.2923844 0.8897571 0.3504906
-0.3016956 0.8894938 0.3431917
-0.3109446 0.8891023 0.3358727
-0.3201308 0.8885837 0.328535
-0.3292534 0.8879389 0.3211802
-0.3383115 0.8871689 0.3138098
-0.3473046 0.8862749 0.3064252
-0.3562319 0.8852577 0.2990278
-0.3650928 0.8841185 0.2916191
-0.3738867 0.8828583 0.2842006
-0.3826129 0.8814782 0.2767735
-0.391271 0.8799791 0.2693394
-0.3998602 0.8783623 0.2618996
-0.4083803 0.8766288 0.2544554
-0.4168305 0.8747795 0.2470083
-0.4252105 0.8728157 0.2395594
-0.4335198 0.8707384 0.2321102
-0.441758 0.8685487 0.224662
-0.4499248 0.8662476 0.2172159
-0.4580196 0.8638363 0.2097733
-0.4660422 0.8613159 0.2023355
-0.4739923 0.8586873 0.1949037
-0.4818694 0.8559518 0.187479
-0.4896735 0.8531104 0.1800627
-0.4974041 0.8501641 0.1726561
-0.505061 0.8471142 0.1652602
-0.512644 0.8439616 0.1578763
-0.520153 0.8407074 0.1505054
-0.5275877 0.8373528 0.1431488
-0.5349479 0.8338987 0.1358075
-0.5422335 0.8303464 0.1284826
-0.5494444 0.8266967 0.1211753
-0.5565804 0.8229508 0.1138866
-0.5636415 0.8191098 0.1066176
-0.5706277 0.8151747 0.09936928
-0.5775387 0.8111466 0.09214275
-0.5843746 0.8070264 0.08493902
-0.5911354 0.8028153 0.07775911
-0.597821 0.7985143 0.070604
-0.6044315 0.7941244 0.06347468
-0.6109668 0.7896466 0.05637214
-0.617427 0.785082 0.04929734
-0.6238121 0.7804315 0.04225123
-0.6301222 0.7756961 0.03523475
-0.6363574 0.7708769 0.02824884
-0.6425177 0.7659749 0.02129441
-0.6486033 0.7609909 0.01437237
-0.6546142 0.7559261 0.00748363
-0.6605506 0.7507813 0.0006290682
-0.6664125 0.7455575 -0.006190431
-0.6722002 0.7402557 -0.012974
-0.6779138 0.7348769 -0.01972077
-0.6835534 0.7294218 -0.0264299
-0.6891193 0.7238916 -0.03310054
-0.6946115 0.718287 -0.03973185
-0.7000304 0.712609 -0.04632301
-0.705376 0.7068586 -0.0528732
-0.7106487 0.7010366 -0.0593816
-0.7158485 0.6951439 -0.06584742
-0.7209758 0.6891814 -0.07226984
-0.7260308 0.6831499 -0.07864808
-0.7310137 0.6770503 -0.08498136
-0.7359247 0.6708836 -0.09126889
-0.7407642 0.6646504 -0.0975099
-0.7455324 0.6583518 -0.1037036
-0.7502294 0.6519884 -0.1098493
-0.7548557 0.6455612 -0.1159462
-0.7594115 0.639071 -0.1219935
-0.7638971 0.6325185 -0.1279904
-0.7683127 0.6259046 -0.1339364
-0.7726588 0.6192301 -0.1398305
-0.7769354 0.6124957 -0.1456721
-0.781143 0.6057023 -0.1514604
-0.7852819 0.5988507 -0.1571947
-0.7893524 0.5919415 -0.1628742
-0.7933548 0.5849756 -0.1684983
-0.7972894 0.5779538 -0.1740662
-0.8011566 0.5708767 -0.1795772
-0.8049566 0.5637452 -0.1850305
-0.8086898 0.5565599 -0.1904255
-0.8123565 0.5493217 -0.1957614
-0.8159571 0.5420312 -0.2010376
-0.8194919 0.5346892 -0.2062532
-0.8229613 0.5272965 -0.2114075
-0.8263655 0.5198536 -0.2165
-0.829705 0.5123614 -0.2215298
-0.83298 0.5048206 -0.2264962
-0.8361909 0.4972318 -0.2313985
-0.8393382 0.4895958 -0.236236
-0.842422 0.4819133 -0.2410079
-0.8454427 0.4741849 -0.2457137
-0.8484008 0.4664115 -0.2503524
-0.8512966 0.4585936 -0.2549235
-0.8541303 0.450732 -0.2594262
-0.8569025 0.4428274 -0.2638598
-0.8596133 0.4348805 -0.2682236
-0.8622632 0.4268919 -0.2725168
-0.8648525 0.4188625 -0.2767388
-0.8673816 0.4107927 -0.2808888
-0.8698508 0.4026835 -0.284966
-0.8722604 0.3945354 -0.2889698
-0.8746109 0.3863491 -0.2928995
-0.8769025 0.3781255 -0.2967543
-0.8791356 0.3698651 -0.3005335
-0.8813105 0.3615687 -0.3042364
-0.8834276 0.353237 -0.3078623
-0.8854873 0.3448707 -0.3114105
-0.8874897 0.3364706 -0.3148802
-0.8894354 0.3280373 -0.3182707
-0.8913246 0.3195716 -0.3215813
-0.8931575 0.3110742 -0.3248114
-0.8949347 0.3025459 -0.3279602
-0.8966563 0.2939875 -0.331027
-0.8983227 0.2853996 -0.3340111
-0.8999342 0.276783 -0.3369118
-0.9014911 0.2681386 -0.3397285
-0.9029937 0.259467 -0.3424605
-0.9044423 0.2507691 -0.3451071
-0.9058372 0.2420457 -0.3476677
-0.9071787 0.2332976 -0.3501416
-0.908467 0.2245255 -0.3525281
-0.9097024 0.2157303 -0.3548267
-0.9108852 0.2069128 -0.3570368
-0.9120156 0.198074 -0.3591576
-0.9130939 0.1892145 -0.3611888
-0.9141204 0.1803352 -0.3631296
-0.9150952 0.1714371 -0.3649795
-0.9160186 0.162521 -0.366738
-0.9168908 0.1535878 -0.3684047
-0.917712 0.1446384 -0.3699788
-0.9184825 0.1356736 -0.3714601
-0.9192023 0.1266945 -0.3728481
-0.9198716 0.1177018 -0.3741423
-0.9204907 0.1086966 -0.3753423
-0.9210597 0.0996797 -0.3764478
-0.9215788 0.09065215 -0.3774583
-0.922048 0.08161485 -0.3783736
-0.9224674 0.07256877 -0.3791934
-0.9228373 0.06351486 -0.3799174
-0.9231576 0.05445408 -0.3805453
-0.9234286 0.04538742 -0.381077
-0.9236501 0.03631584 -0.3815122
-0.9238224 0.02724033 -0.3818509
-0.9239454 0.01816186 -0.3820929
-0.9240192 0.009081426 -0.3822381
-0.9240438 2.031774e-09 -0.3822866
-0.9240192 -0.009081422 -0.3822381
-0.9239454 -0.01816186 -0.3820929
-0.9238224 -0.02724033 -0.3818509
-0.9236501 -0.03631584 -0.3815122
-0.9234286 -0.04538742 -0.381077
-0.9231576 -0.05445408 -0.3805453
-0.9228373 -0.06351485 -0.3799174
-0.9224674 -0.07256876 -0.3791934
-0.922048 -0.08161485 -0.3783736
-0.9215788 -0.09065214 -0.3774583
-0.9210597 -0.0996797 -0.3764478
-0.9204907 -0.1086966 -0.3753423
-0.9198716 -0.1177018 -0.3741423
-0.9192023 -0.1266945 -0.3728481
-0.9184825 -0.1356736 -0.3714601
-0.917712 -0.1446384 -0.3699788
-0.9168908 -0.1535878 -0.3684047
-0.9160186 -0.162521 -0.366738
-0.9150952 -0.1714371 -0.3649795
-0.9141204 -0.1803352 -0.3631296
-0.9130939 -0.1892145 -0.3611888
-0.9120156 -0.1980739 -0.3591576
-0.9108852 -0.2069128 -0.3570368
-0.9097024 -0.2157303 -0.3548267
-0.908467 -0.2245255 -0.3525281
-0.9071787 -0.2332976 -0.3501416
-0.9058372 -0.2420457 -0.3476677
-0.9044423 -0.2507691 -0.3451071
-0.9029937 -0.259467 -0.3424605
-0.9014911 -0.2681386 -0.3397285
-0.8999342 -0.276783 -0.3369118
-0.8983227 -0.2853996 -0.3340111
-0.8966563 -0.2939875 -0.331027
-0.8949347 -0.3025459 -0.3279602
-0.8931575 -0.3110742 -0.3248114
-0.8913246 -0.3195716 -0.3215813
-0.8894354 -0.3280373 -0.3182707
-0.8874897 -0.3364706 -0.3148802
-0.8854873 -0.3448707 -0.3114105
-0.8834277 -0.353237 -0.3078623
-0.8813105 -0.3615687 -0.3042364
-0.8791356 -0.3698651 -0.3005335
-0.8769025 -0.3781255 -0.2967543
-0.8746109 -0.3863491 -0.2928995
-0.8722604 -0.3945354 -0.2889698
-0.8698508 -0.4026835 -0.284966
-0.8673816 -0.4107927 -0.2808888
-0.8648525 -0.4188625 -0.2767388
-0.8622632 -0.4268919 -0.2725168