# vtk DataFile Version 2.0
Written badly by Kevin Korner
ASCII
DATASET POLYDATA
POINTS 350 FLOAT
0 0 0
0.00286533 0 0
0.005730529 2.599449e-05 8.342522e-06
0.008595339 7.799225e-05 2.491701e-05
0.0114595 0.0001559992 4.961258e-05
0.01432275 0.0002600186 8.231803e-05
0.01718484 0.0003900507 0.0001229219
0.02004551 0.0005460931 0.0001713123
0.0229045 0.0007281407 0.0002273773
0.02576156 0.0009361856 0.0002910046
0.02861643 0.001170217 0.0003620816
0.03146886 0.001430222 0.0004404957
0.0343186 0.001716184 0.0005261339
0.03716539 0.002028085 0.0006188833
0.04000899 0.002365903 0.0007186304
0.04284914 0.002729614 0.0008252619
0.0456856 0.003119193 0.0009386643
0.04851811 0.003534609 0.001058724
0.05134643 0.00397583 0.001185327
0.05417032 0.004442824 0.00131836
0.05698952 0.004935552 0.001457709
0.0598038 0.005453975 0.00160326
0.06261291 0.005998052 0.001754899
0.06541661 0.006567737 0.001912513
0.06821466 0.007162985 0.002075986
0.07100681 0.007783746 0.002245206
0.07379284 0.008429969 0.002420058
0.0765725 0.009101598 0.002600428
0.07934555 0.009798578 0.002786203
0.08211176 0.01052085 0.002977269
0.0848709 0.01126835 0.003173513
0.08762273 0.01204102 0.00337482
0.09036702 0.01283879 0.003581078
0.09310354 0.01366159 0.003792172
0.09583206 0.01450936 0.004007991
0.09855236 0.01538201 0.00422842
0.1012642 0.01627948 0.004453348
0.1039674 0.01720169 0.004682661
0.1066616 0.01814855 0.004916247
0.1093467 0.01911999 0.005153994
0.1120225 0.02011592 0.00539579
0.1146887 0.02113626 0.005641523
0.1173451 0.02218092 0.005891082
0.1199915 0.02324981 0.006144355
0.1226277 0.02434283 0.006401231
0.1252534 0.02545989 0.0066616
0.1278685 0.0266009 0.006925351
0.1304727 0.02776575 0.007192375
0.1330659 0.02895436 0.007462561
0.1356477 0.0301666 0.007735799
0.1382181 0.03140239 0.008011982
0.1407767 0.03266161 0.008291
0.1433234 0.03394415 0.008572745
0.145858 0.03524991 0.008857109
0.1483803 0.03657877 0.009143984
0.1508901 0.03793061 0.009433263
0.1533871 0.03930533 0.00972484
0.1558713 0.04070281 0.01001861
0.1583423 0.04212292 0.01031446
0.1608 0.04356554 0.01061229
0.1632441 0.04503055 0.010912
0.1656746 0.04651783 0.01121348
0.1680912 0.04802724 0.01151662
0.1704937 0.04955867 0.01182133
0.1728819 0.05111197 0.01212749
0.1752557 0.05268702 0.01243501
0.1776148 0.05428368 0.01274379
0.1799591 0.05590182 0.01305372
0.1822884 0.0575413 0.0133647
0.1846025 0.05920198 0.01367663
0.1869012 0.06088372 0.01398942
0.1891843 0.06258638 0.01430296
0.1914517 0.06430982 0.01461715
0.1937032 0.06605388 0.0149319
0.1959386 0.06781843 0.0152471
0.1981578 0.06960332 0.01556267
0.2003606 0.07140838 0.0158785
0.2025467 0.07323348 0.0161945
0.2047161 0.07507847 0.01651057
0.2068686 0.07694317 0.01682662
0.2090039 0.07882745 0.01714256
0.211122 0.08073114 0.01745829
0.2132227 0.08265408 0.01777372
0.2153059 0.08459611 0.01808876
0.2173712 0.08655708 0.01840332
0.2194187 0.08853681 0.0187173
0.2214481 0.09053515 0.01903061
0.2234594 0.09255193 0.01934318
0.2254522 0.09458697 0.0196549
0.2274266 0.09664011 0.0199657
0.2293823 0.09871119 0.02027547
0.2313192 0.1008 0.02058415
0.2332372 0.1029065 0.02089164
0.235136 0.1050303 0.02119786
0.2370157 0.1071714 0.02150272
0.2388759 0.1093295 0.02180614
0.2407166 0.1115045 0.02210805
0.2425377 0.1136962 0.02240834
0.2443389 0.1159045 0.02270696
0.2461203 0.1181291 0.02300381
0.2478816 0.1203698 0.02329882
0.2496226 0.1226266 0.0235919
0.2513434 0.1248991 0.02388299
0.2530437 0.1271872 0.024172
0.2547234 0.1294908 0.02445886
0.2563825 0.1318096 0.0247435
0.2580207 0.1341434 0.02502583
0.2596379 0.136492 0.02530579
0.2612341 0.1388554 0.0255833
0.2628091 0.1412332 0.0258583
0.2643628 0.1436252 0.0261307
0.265895 0.1460314 0.02640045
0.2674057 0.1484514 0.02666747
0.2688948 0.1508851 0.02693169
0.2703621 0.1533323 0.02719306
0.2718076 0.1557928 0.02745149
0.2732311 0.1582664 0.02770693
0.2746325 0.1607528 0.02795931
0.2760117 0.163252 0.02820857
0.2773686 0.1657636 0.02845464
0.2787032 0.1682875 0.02869747
0.2800152 0.1708235 0.02893699
0.2813047 0.1733714 0.02917315
0.2825715 0.1759309 0.02940589
0.2838156 0.1785019 0.02963514
0.2850367 0.1810841 0.02986085
0.286235 0.1836774 0.03008297
0.2874102 0.1862815 0.03030144
0.2885622 0.1888962 0.03051621
0.2896911 0.1915213 0.03072722
0.2907966 0.1941566 0.03093443
0.2918788 0.1968019 0.03113777
0.2929375 0.199457 0.03133722
0.2939727 0.2021216 0.0315327
0.2949843 0.2047956 0.03172419
0.2959722 0.2074787 0.03191162
0.2969364 0.2101707 0.03209496
0.2978767 0.2128714 0.03227417
0.2987931 0.2155806 0.03244919
0.2996855 0.2182981 0.03261998
0.300554 0.2210235 0.03278651
0.3013983 0.2237568 0.03294874
0.3022185 0.2264977 0.03310662
0.3030144 0.229246 0.03326012
0.3037861 0.2320014 0.03340919
0.3045335 0.2347638 0.03355382
0.3052564 0.2375329 0.03369395
0.305955 0.2403084 0.03382957
0.306629 0.2430903 0.03396062
0.3072785 0.2458782 0.0340871
0.3079034 0.2486719 0.03420895
0.3085037 0.2514711 0.03432616
0.3090793 0.2542758 0.0344387
0.3096301 0.2570856 0.03454653
0.3101562 0.2599003 0.03464964
0.3106575 0.2627198 0.034748
0.311134 0.2655437 0.03484159
0.3115856 0.2683718 0.03493038
0.3120123 0.2712039 0.03501435
0.3124141 0.2740398 0.03509349
0.3127908 0.2768793 0.03516777
0.3131426 0.2797221 0.03523718
0.3134694 0.282568 0.03530171
0.3137711 0.2854168 0.03536132
0.3140478 0.2882682 0.03541602
0.3142994 0.291122 0.03546579
0.3145259 0.2939781 0.03551061
0.3147272 0.296836 0.03555048
0.3149034 0.2996957 0.03558539
0.3150545 0.3025569 0.03561532
0.3151804 0.3054194 0.03564028
0.3152811 0.3082828 0.03566025
0.3153567 0.3111471 0.03567523
0.3154071 0.314012 0.03568522
0.3154323 0.3168772 0.03569022
0.3154323 0.3197426 0.03569022
0.3154071 0.3226078 0.03568522
0.3153567 0.3254726 0.03567523
0.3152811 0.3283369 0.03566025
0.3151804 0.3312004 0.03564028
0.3150545 0.3340629 0.03561532
0.3149034 0.3369241 0.03558539
0.3147272 0.3397838 0.03555048
0.3145259 0.3426417 0.03551061
0.3142994 0.3454977 0.03546579
0.3140478 0.3483516 0.03541602
0.3137711 0.351203 0.03536132
0.3134694 0.3540518 0.03530171
0.3131426 0.3568977 0.03523718
0.3127908 0.3597405 0.03516777
0.3124141 0.3625799 0.03509349
0.3120123 0.3654159 0.03501435
0.3115856 0.368248 0.03493038
0.311134 0.3710761 0.03484159
0.3106575 0.3739 0.034748
0.3101562 0.3767194 0.03464964
0.3096301 0.3795342 0.03454653
0.3090793 0.382344 0.0344387
0.3085037 0.3851486 0.03432616
0.3079034 0.3879479 0.03420895
0.3072785 0.3907416 0.0340871
0.306629 0.3935295 0.03396062
0.305955 0.3963113 0.03382957
0.3052564 0.3990869 0.03369395
0.3045335 0.401856 0.03355382
0.3037861 0.4046184 0.03340919
0.3030144 0.4073738 0.03326012
0.3022185 0.4101221 0.03310662
0.3013983 0.4128629 0.03294874
0.300554 0.4155962 0.03278651
0.2996855 0.4183217 0.03261998
0.2987931 0.4210392 0.03244919
0.2978767 0.4237483 0.03227417
0.2969364 0.426449 0.03209496
0.2959722 0.4291411 0.03191162
0.2949843 0.4318242 0.03172419
0.2939727 0.4344981 0.0315327
0.2929375 0.4371628 0.03133722
0.2918788 0.4398178 0.03113777
0.2907966 0.4424631 0.03093443
0.2896911 0.4450985 0.03072722
0.2885622 0.4477236 0.03051621
0.2874102 0.4503383 0.03030144
0.286235 0.4529424 0.03008297
0.2850367 0.4555357 0.02986085
0.2838156 0.4581179 0.02963514
0.2825715 0.4606889 0.02940589
0.2813047 0.4632484 0.02917315
0.2800152 0.4657962 0.02893699
0.2787032 0.4683322 0.02869747
0.2773686 0.4708561 0.02845464
0.2760117 0.4733678 0.02820857
0.2746325 0.4758669 0.02795931
0.2732311 0.4783534 0.02770693
0.2718076 0.480827 0.02745149
0.2703621 0.4832875 0.02719306
0.2688948 0.4857346 0.02693169
0.2674057 0.4881684 0.02666747
0.265895 0.4905884 0.02640045
0.2643628 0.4929945 0.0261307
0.2628091 0.4953866 0.0258583
0.2612341 0.4977644 0.0255833
0.2596379 0.5001277 0.02530579
0.2580207 0.5024764 0.02502583
0.2563825 0.5048102 0.0247435
0.2547234 0.507129 0.02445886
0.2530437 0.5094325 0.024172
0.2513434 0.5117207 0.02388299
0.2496226 0.5139932 0.0235919
0.2478816 0.5162499 0.02329882
0.2461203 0.5184907 0.02300381
0.2443389 0.5207153 0.02270696
0.2425377 0.5229235 0.02240834
0.2407166 0.5251153 0.02210805
0.2388759 0.5272903 0.02180614
0.2370157 0.5294484 0.02150272
0.235136 0.5315895 0.02119786
0.2332372 0.5337133 0.02089164
0.2313192 0.5358197 0.02058415
0.2293823 0.5379086 0.02027547
0.2274266 0.5399797 0.0199657
0.2254522 0.5420328 0.0196549
0.2234594 0.5440678 0.01934318
0.2214481 0.5460846 0.01903061
0.2194187 0.548083 0.0187173
0.2173712 0.5500627 0.01840332
0.2153059 0.5520237 0.01808876
0.2132227 0.5539657 0.01777372
0.211122 0.5558886 0.01745829
0.2090039 0.5577923 0.01714256
0.2068686 0.5596766 0.01682662
0.2047161 0.5615413 0.01651057
0.2025467 0.5633863 0.0161945
0.2003606 0.5652114 0.0158785
0.1981578 0.5670165 0.01556267
0.1959386 0.5688013 0.0152471
0.1937032 0.5705659 0.0149319
0.1914517 0.57231 0.01461715
0.1891843 0.5740334 0.01430296
0.1869012 0.5757361 0.01398942
0.1846025 0.5774178 0.01367663
0.1822884 0.5790785 0.0133647
0.1799591 0.580718 0.01305372
0.1776148 0.5823361 0.01274379
0.1752557 0.5839328 0.01243501
0.1728819 0.5855078 0.01212749
0.1704937 0.5870611 0.01182133
0.1680912 0.5885925 0.01151662
0.1656746 0.5901019 0.01121348
0.1632441 0.5915892 0.010912
0.1608 0.5930542 0.01061229
0.1583423 0.5944969 0.01031446
0.1558713 0.595917 0.01001861
0.1533871 0.5973144 0.00972484
0.1508901 0.5986892 0.009433263
0.1483803 0.600041 0.009143984
0.145858 0.6013699 0.008857109
0.1433234 0.6026756 0.008572745
0.1407767 0.6039582 0.008291
0.1382181 0.6052174 0.008011982
0.1356477 0.6064532 0.007735799
0.1330659 0.6076654 0.007462561
0.1304727 0.608854 0.007192375
0.1278685 0.6100189 0.006925351
0.1252534 0.6111599 0.0066616
0.1226277 0.6122769 0.006401231
0.1199915 0.61337 0.006144355
0.1173451 0.6144389 0.005891082
0.1146887 0.6154835 0.005641523
0.1120225 0.6165038 0.00539579
0.1093467 0.6174998 0.005153994
0.1066616 0.6184712 0.004916247
0.1039674 0.6194181 0.004682661
0.1012642 0.6203403 0.004453348
0.09855236 0.6212378 0.00422842
0.09583206 0.6221104 0.004007991
0.09310354 0.6229582 0.003792172
0.09036702 0.623781 0.003581078
0.08762273 0.6245788 0.00337482
0.0848709 0.6253514 0.003173513
0.08211176 0.6260989 0.002977269
0.07934555 0.6268212 0.002786203
0.0765725 0.6275182 0.002600428
0.07379284 0.6281898 0.002420058
0.07100681 0.628836 0.002245206
0.06821466 0.6294568 0.002075986
0.06541661 0.630052 0.001912513
0.06261291 0.6306217 0.001754899
0.0598038 0.6311658 0.00160326
0.05698952 0.6316842 0.001457709
0.05417032 0.6321769 0.00131836
0.05134643 0.6326439 0.001185327
0.04851811 0.6330852 0.001058724
0.0456856 0.6335006 0.0009386643
0.04284914 0.6338902 0.0008252619
0.04000899 0.6342539 0.0007186304
0.03716539 0.6345917 0.0006188833
0.0343186 0.6349036 0.0005261339
0.03146886 0.6351896 0.0004404957
0.02861643 0.6354496 0.0003620816
0.02576156 0.6356836 0.0002910046
0.0229045 0.6358916 0.0002273773
0.02004551 0.6360737 0.0001713123
0.01718484 0.6362297 0.0001229219
0.01432275 0.6363598 8.231803e-05
0.0114595 0.6364638 4.961258e-05
0.008595339 0.6365418 2.491701e-05
0.005730529 0.6365938 8.342522e-06
0.00286533 0.6366198 0
0 0.6366198 0

LINES 349 1047
2 0 1
2 1 2
2 2 3
2 3 4
2 4 5
2 5 6
2 6 7
2 7 8
2 8 9
2 9 10
2 10 11
2 11 12
2 12 13
2 13 14
2 14 15
2 15 16
2 16 17
2 17 18
2 18 19
2 19 20
2 20 21
2 21 22
2 22 23
2 23 24
2 24 25
2 25 26
2 26 27
2 27 28
2 28 29
2 29 30
2 30 31
2 31 32
2 32 33
2 33 34
2 34 35
2 35 36
2 36 37
2 37 38
2 38 39
2 39 40
2 40 41
2 41 42
2 42 43
2 43 44
2 44 45
2 45 46
2 46 47
2 47 48
2 48 49
2 49 50
2 50 51
2 51 52
2 52 53
2 53 54
2 54 55
2 55 56
2 56 57
2 57 58
2 58 59
2 59 60
2 60 61
2 61 62
2 62 63
2 63 64
2 64 65
2 65 66
2 66 67
2 67 68
2 68 69
2 69 70
2 70 71
2 71 72
2 72 73
2 73 74
2 74 75
2 75 76
2 76 77
2 77 78
2 78 79
2 79 80
2 80 81
2 81 82
2 82 83
2 83 84
2 84 85
2 85 86
2 86 87
2 87 88
2 88 89
2 89 90
2 90 91
2 91 92
2 92 93
2 93 94
2 94 95
2 95 96
2 96 97
2 97 98
2 98 99
2 99 100
2 100 101
2 101 102
2 102 103
2 103 104
2 104 105
2 105 106
2 106 107
2 107 108
2 108 109
2 109 110
2 110 111
2 111 112
2 112 113
2 113 114
2 114 115
2 115 116
2 116 117
2 117 118
2 118 119
2 119 120
2 120 121
2 121 122
2 122 123
2 123 124
2 124 125
2 125 126
2 126 127
2 127 128
2 128 129
2 129 130
2 130 131
2 131 132
2 132 133
2 133 134
2 134 135
2 135 136
2 136 137
2 137 138
2 138 139
2 139 140
2 140 141
2 141 142
2 142 143
2 143 144
2 144 145
2 145 146
2 146 147
2 147 148
2 148 149
2 149 150
2 150 151
2 151 152
2 152 153
2 153 154
2 154 155
2 155 156
2 156 157
2 157 158
2 158 159
2 159 160
2 160 161
2 161 162
2 162 163
2 163 164
2 164 165
2 165 166
2 166 167
2 167 168
2 168 169
2 169 170
2 170 171
2 171 172
2 172 173
2 173 174
2 174 175
2 175 176
2 176 177
2 177 178
2 178 179
2 179 180
2 180 181
2 181 182
2 182 183
2 183 184
2 184 185
2 185 186
2 186 187
2 187 188
2 188 189
2 189 190
2 190 191
2 191 192
2 192 193
2 193 194
2 194 195
2 195 196
2 196 197
2 197 198
2 198 199
2 199 200
2 200 201
2 201 202
2 202 203
2 203 204
2 204 205
2 205 206
2 206 207
2 207 208
2 208 209
2 209 210
2 210 211
2 211 212
2 212 213
2 213 214
2 214 215
2 215 216
2 216 217
2 217 218
2 218 219
2 219 220
2 220 221
2 221 222
2 222 223
2 223 224
2 224 225
2 225 226
2 226 227
2 227 228
2 228 229
2 229 230
2 230 231
2 231 232
2 232 233
2 233 234
2 234 235
2 235 236
2 236 237
2 237 238
2 238 239
2 239 240
2 240 241
2 241 242
2 242 243
2 243 244
2 244 245
2 245 246
2 246 247
2 247 248
2 248 249
2 249 250
2 250 251
2 251 252
2 252 253
2 253 254
2 254 255
2 255 256
2 256 257
2 257 258
2 258 259
2 259 260
2 260 261
2 261 262
2 262 263
2 263 264
2 264 265
2 265 266
2 266 267
2 267 268
2 268 269
2 269 270
2 270 271
2 271 272
2 272 273
2 273 274
2 274 275
2 275 276
2 276 277
2 277 278
2 278 279
2 279 280
2 280 281
2 281 282
2 282 283
2 283 284
2 284 285
2 285 286
2 286 287
2 287 288
2 288 289
2 289 290
2 290 291
2 291 292
2 292 293
2 293 294
2 294 295
2 295 296
2 296 297
2 297 298
2 298 299
2 299 300
2 300 301
2 301 302
2 302 303
2 303 304
2 304 305
2 305 306
2 306 307
2 307 308
2 308 309
2 309 310
2 310 311
2 311 312
2 312 313
2 313 314
2 314 315
2 315 316
2 316 317
2 317 318
2 318 319
2 319 320
2 320 321
2 321 322
2 322 323
2 323 324
2 324 325
2 325 326
2 326 327
2 327 328
2 328 329
2 329 330
2 330 331
2 331 332
2 332 333
2 333 334
2 334 335
2 335 336
2 336 337
2 337 338
2 338 339
2 339 340
2 340 341
2 341 342
2 342 343
2 343 344
2 344 345
2 345 346
2 346 347
2 347 348
2 348 349


POINT_DATA 350
SCALARS a FLOAT 1
LOOKUP_TABLE default
0.0005894628
0.0005894628
0.0005894628
0.0005894628
0.0005894628
0.0005894628
0.0005894628
0.0005894628
0.0005894628
0.0005894628
0.0005894628
0.0005894628
0.0005894628
0.0005894628
0.0005894628
0.0005894628
0.0005894628
0.0005894628
0.0005894628
0.0005894628
0.0005894628
0.0005894628
0.0005894628
0.0005894628
0.0005894628
0.0005894628
0.0005894628
0.0005894628
0.0005894628
0.0005894628
0.0005894628
0.0005894628
0.0005894628
0.0005894628
0.0005894628
0.0005894628
0.0005894628
0.0005894628
0.0005894628
0.0005894628
0.0005894628
0.0005894628
0.0005894628
0.0005894628
0.0005894628
0.0005894628
0.0005894628
0.0005894628
0.0005894628
0.0005894628
0.0005894628
0.0005894628
0.0005894628
0.0005894628
0.0005894628
0.0005894628
0.0005894628
0.0005894628
0.0005894628
0.0005894628
0.0005894628
0.0005894628
0.0005894628
0.0005894628
0.0005894628
0.0005894628
0.0005894628
0.0005894628
0.0005894628
0.0005894628
0.0005894628
0.0005894628
0.0005894628
0.0005894628
0.0005894628
0.0005894628
0.0005894628
0.0005894628
0.0005894628
0.0005894628
0.0005894628
0.0005894628
0.0005894628
0.0005894628
0.0005894628
0.0005894628
0.0005894628
0.0005894628
0.0005894628
0.0005894628
0.0005894628
0.0005894628
0.0005894628
0.0005894628
0.0005894628
0.0005894628
0.0005894628
0.0005894628
0.0005894628
0.0005894628
0.0005894628
0.0005894628
0.0005894628
0.0005894628
0.0005894628
0.0005894628
0.0005894628
0.0005894628
0.0005894628
0.0005894628
0.0005894628
0.0005894628
0.0005894628
0.0005894628
0.0005894628
0.0005894628
0.0005894628
0.0005894628
0.0005894628
0.0005894628
0.0005894628
0.0005894628
0.0005894628
0.0005894628
0.0005894628
0.0005894628
0.0005894628
0.0005894628
0.0005894628
0.0005894628
0.0005894628
0.0005894628
0.0005894628
0.0005894628
0.0005894628
0.0005894628
0.0005894628
0.0005894628
0.0005894628
0.0005894628
0.0005894628
0.0005894628
0.0005894628
0.0005894628
0.0005894628
0.0005894628
0.0005894628
0.0005894628
0.0005894628
0.0005894628
0.0005894628
0.0005894628
0.0005894628
0.0005894628
0.0005894628
0.0005894628
0.0005894628
0.0005894628
0.0005894628
0.0005894628
0.0005894628
0.0005894628
0.0005894628
0.0005894628
0.0005894628
0.0005894628
0.0005894628
0.0005894628
0.0005894628
0.0005894628
0.0005894628
0.0005894628
0.0005894628
0.0005894628
0.0005894628
0.0005894628
0.0005894628
0.0005894628
0.0005894628
0.0005894628
0.0005894628
0.0005894628
0.0005894628
0.0005894628
0.0005894628
0.0005894628
0.0005894628
0.0005894628
0.0005894628
0.0005894628
0.0005894628
0.0005894628
0.0005894628
0.0005894628
0.0005894628
0.0005894628
0.0005894628
0.0005894628
0.0005894628
0.0005894628
0.0005894628
0.0005894628
0.0005894628
0.0005894628
0.0005894628
0.0005894628
0.0005894628
0.0005894628
0.0005894628
0.0005894628
0.0005894628
0.0005894628
0.0005894628
0.0005894628
0.0005894628
0.0005894628
0.0005894628
0.0005894628
0.0005894628
0.0005894628
0.0005894628
0.0005894628
0.0005894628
0.0005894628
0.0005894628
0.0005894628
0.0005894628
0.0005894628
0.0005894628
0.0005894628
0.0005894628
0.0005894628
0.0005894628
0.0005894628
0.0005894628
0.0005894628
0.0005894628
0.0005894628
0.0005894628
0.0005894628
0.0005894628
0.0005894628
0.0005894628
0.0005894628
0.0005894628
0.0005894628
0.0005894628
0.0005894628
0.0005894628
0.0005894628
0.0005894628
0.0005894628
0.0005894628
0.0005894628
0.0005894628
0.0005894628
0.0005894628
0.0005894628
0.0005894628
0.0005894628
0.0005894628
0.0005894628
0.0005894628
0.0005894628
0.0005894628
0.0005894628
0.0005894628
0.0005894628
0.0005894628
0.0005894628
0.0005894628
0.0005894628
0.0005894628
0.0005894628
0.0005894628
0.0005894628
0.0005894628
0.0005894628
0.0005894628
0.0005894628
0.0005894628
0.0005894628
0.0005894628
0.0005894628
0.0005894628
0.0005894628
0.0005894628
0.0005894628
0.0005894628
0.0005894628
0.0005894628
0.0005894628
0.0005894628
0.0005894628
0.0005894628
0.0005894628
0.0005894628
0.0005894628
0.0005894628
0.0005894628
0.0005894628
0.0005894628
0.0005894628
0.0005894628
0.0005894628
0.0005894628
0.0005894628
0.0005894628
0.0005894628
0.0005894628
0.0005894628
0.0005894628
0.0005894628
0.0005894628
0.0005894628
0.0005894628
0.0005894628
0.0005894628
0.0005894628
0.0005894628
0.0005894628
0.0005894628
0.0005894628
0.0005894628
0.0005894628
0.0005894628
0.0005894628
0.0005894628
0.0005894628
0.0005894628
0.0005894628
0.0005894628
0.0005894628
0.0005894628
0.0005894628
0.0005894628
0.0005894628
0.0005894628
0.0005894628
0.0005894628
0.0005894628
0.0005894628
0.0005894628
0.0005894628
0.0005894628
0.0005894628
0.0005894628
0.0005894628
0.0005894628
0.0005894628


SCALARS b FLOAT 1
LOOKUP_TABLE default
0.04420971
0.04420971
0.04420971
0.04420971
0.04420971
0.04420971
0.04420971
0.04420971
0.04420971
0.04420971
0.04420971
0.04420971
0.04420971
0.04420971
0.04420971
0.04420971
0.04420971
0.04420971
0.04420971
0.04420971
0.04420971
0.04420971
0.04420971
0.04420971
0.04420971
0.04420971
0.04420971
0.04420971
0.04420971
0.04420971
0.04420971
0.04420971
0.04420971
0.04420971
0.04420971
0.04420971
0.04420971
0.04420971
0.04420971
0.04420971
0.04420971
0.04420971
0.04420971
0.04420971
0.04420971
0.04420971
0.04420971
0.04420971
0.04420971
0.04420971
0.04420971
0.04420971
0.04420971
0.04420971
0.04420971
0.04420971
0.04420971
0.04420971
0.04420971
0.04420971
0.04420971
0.04420971
0.04420971
0.04420971
0.04420971
0.04420971
0.04420971
0.04420971
0.04420971
0.04420971
0.04420971
0.04420971
0.04420971
0.04420971
0.04420971
0.04420971
0.04420971
0.04420971
0.04420971
0.04420971
0.04420971
0.04420971
0.04420971
0.04420971
0.04420971
0.04420971
0.04420971
0.04420971
0.04420971
0.04420971
0.04420971
0.04420971
0.04420971
0.04420971
0.04420971
0.04420971
0.04420971
0.04420971
0.04420971
0.04420971
0.04420971
0.04420971
0.04420971
0.04420971
0.04420971
0.04420971
0.04420971
0.04420971
0.04420971
0.04420971
0.04420971
0.04420971
0.04420971
0.04420971
0.04420971
0.04420971
0.04420971
0.04420971
0.04420971
0.04420971
0.04420971
0.04420971
0.04420971
0.04420971
0.04420971
0.04420971
0.04420971
0.04420971
0.04420971
0.04420971
0.04420971
0.04420971
0.04420971
0.04420971
0.04420971
0.04420971
0.04420971
0.04420971
0.04420971
0.04420971
0.04420971
0.04420971
0.04420971
0.04420971
0.04420971
0.04420971
0.04420971
0.04420971
0.04420971
0.04420971
0.04420971
0.04420971
0.04420971
0.04420971
0.04420971
0.04420971
0.04420971
0.04420971
0.04420971
0.04420971
0.04420971
0.04420971
0.04420971
0.04420971
0.04420971
0.04420971
0.04420971
0.04420971
0.04420971
0.04420971
0.04420971
0.04420971
0.04420971
0.04420971
0.04420971
0.04420971
0.04420971
0.04420971
0.04420971
0.04420971
0.04420971
0.04420971
0.04420971
0.04420971
0.04420971
0.04420971
0.04420971
0.04420971
0.04420971
0.04420971
0.04420971
0.04420971
0.04420971
0.04420971
0.04420971
0.04420971
0.04420971
0.04420971
0.04420971
0.04420971
0.04420971
0.04420971
0.04420971
0.04420971
0.04420971
0.04420971
0.04420971
0.04420971
0.04420971
0.04420971
0.04420971
0.04420971
0.04420971
0.04420971
0.04420971
0.04420971
0.04420971
0.04420971
0.04420971
0.04420971
0.04420971
0.04420971
0.04420971
0.04420971
0.04420971
0.04420971
0.04420971
0.04420971
0.04420971
0.04420971
0.04420971
0.04420971
0.04420971
0.04420971
0.04420971
0.04420971
0.04420971
0.04420971
0.04420971
0.04420971
0.04420971
0.04420971
0.04420971
0.04420971
0.04420971
0.04420971
0.04420971
0.04420971
0.04420971
0.04420971
0.04420971
0.04420971
0.04420971
0.04420971
0.04420971
0.04420971
0.04420971
0.04420971
0.04420971
0.04420971
0.04420971
0.04420971
0.04420971
0.04420971
0.04420971
0.04420971
0.04420971
0.04420971
0.04420971
0.04420971
0.04420971
0.04420971
0.04420971
0.04420971
0.04420971
0.04420971
0.04420971
0.04420971
0.04420971
0.04420971
0.04420971
0.04420971
0.04420971
0.04420971
0.04420971
0.04420971
0.04420971
0.04420971
0.04420971
0.04420971
0.04420971
0.04420971
0.04420971
0.04420971
0.04420971
0.04420971
0.04420971
0.04420971
0.04420971
0.04420971
0.04420971
0.04420971
0.04420971
0.04420971
0.04420971
0.04420971
0.04420971
0.04420971
0.04420971
0.04420971
0.04420971
0.04420971
0.04420971
0.04420971
0.04420971
0.04420971
0.04420971
0.04420971
0.04420971
0.04420971
0.04420971
0.04420971
0.04420971
0.04420971
0.04420971
0.04420971
0.04420971
0.04420971
0.04420971
0.04420971
0.04420971
0.04420971
0.04420971
0.04420971
0.04420971
0.04420971
0.04420971
0.04420971
0.04420971
0.04420971
0.04420971
0.04420971
0.04420971
0.04420971
0.04420971
0.04420971
0.04420971
0.04420971
0.04420971
0.04420971


VECTORS d1 FLOAT
0 0.9515407 0.3075227
-0.009527819 0.9527089 0.3037351
-0.01904669 0.9537718 0.2999276
-0.02855565 0.9547297 0.2961008
-0.03805372 0.9555829 0.2922553
-0.04753996 0.9563316 0.2883918
-0.05701341 0.956976 0.2845108
-0.06647315 0.9575164 0.2806129
-0.07591823 0.9579531 0.2766989
-0.08534774 0.9582863 0.2727692
-0.09476077 0.9585164 0.2688246
-0.1041564 0.9586436 0.2648657
-0.1135338 0.9586683 0.260893
-0.1228919 0.9585908 0.2569071
-0.13223 0.9584114 0.2529088
-0.1415472 0.9581304 0.2488985
-0.1508426 0.9577483 0.244877
-0.1601154 0.9572653 0.2408448
-0.1693647 0.9566819 0.2368025
-0.1785896 0.9559983 0.2327507
-0.1877894 0.9552151 0.2286901
-0.1969633 0.9543326 0.2246212
-0.2061104 0.9533512 0.2205447
-0.2152298 0.9522714 0.2164611
-0.224321 0.9510934 0.212371
-0.2333829 0.9498178 0.208275
-0.242415 0.9484451 0.2041737
-0.2514163 0.9469756 0.2000678
-0.2603862 0.9454097 0.1959578
-0.2693239 0.9437481 0.1918442
-0.2782286 0.941991 0.1877277
-0.2870997 0.9401391 0.1836089
-0.2959364 0.9381927 0.1794882
-0.304738 0.9361524 0.1753664
-0.3135038 0.9340187 0.171244
-0.3222331 0.9317919 0.1671215
-0.3309252 0.9294728 0.1629995
-0.3395795 0.9270617 0.1588786
-0.3481952 0.9245592 0.1547594
-0.3567717 0.9219658 0.1506424
-0.3653083 0.919282 0.1465281
-0.3738045 0.9165083 0.1424172
-0.3822595 0.9136454 0.1383101
-0.3906728 0.9106937 0.1342075
-0.3990437 0.9076539 0.1301099
-0.4073716 0.9045263 0.1260178
-0.415656 0.9013117 0.1219318
-0.4238962 0.8980105 0.1178524
-0.4320916 0.8946234 0.1137801
-0.4402416 0.8911508 0.1097155
-0.4483458 0.8875935 0.1056591
-0.4564035 0.8839519 0.1016115
-0.4644142 0.8802266 0.09757316
-0.4723773 0.8764183 0.09354459
-0.4802923 0.8725275 0.08952634
-0.4881587 0.8685549 0.08551891
-0.495976 0.8645009 0.08152283
-0.5037436 0.8603663 0.0775386
-0.511461 0.8561516 0.07356674
-0.5191278 0.8518575 0.06960774
-0.5267434 0.8474845 0.0656621
-0.5343074 0.8430332 0.06173034
-0.5418193 0.8385044 0.05781293
-0.5492786 0.8338985 0.05391039
-0.5566849 0.8292163 0.05002318
-0.5640377 0.8244583 0.04615181
-0.5713365 0.8196252 0.04229675
-0.578581 0.8147177 0.03845848
-0.5857708 0.8097363 0.03463748
-0.5929053 0.8046817 0.03083423
-0.5999841 0.7995545 0.0270492
-0.607007 0.7943554 0.02328284
-0.6139734 0.789085 0.01953564
-0.6208829 0.7837439 0.01580803
-0.6277352 0.7783329 0.0121005
-0.6345299 0.7728525 0.008413483
-0.6412666 0.7673034 0.004747438
-0.647945 0.7616863 0.001102811
-0.6545647 0.7560018 -0.002519952
-0.6611252 0.7502506 -0.00612041
-0.6676264 0.7444333 -0.009698125
-0.6740678 0.7385506 -0.01325266
-0.6804491 0.7326032 -0.01678359
-0.6867699 0.7265916 -0.02029048
-0.69303 0.7205167 -0.0237729
-0.699229 0.714379 -0.02723045
-0.7053666 0.7081791 -0.03066268
-0.7114426 0.7019179 -0.03406921
-0.7174565 0.695596 -0.0374496
-0.7234081 0.6892139 -0.04080345
-0.7292971 0.6827724 -0.04413036
-0.7351233 0.6762722 -0.04742993
-0.7408863 0.669714 -0.05070175
-0.7465859 0.6630983 -0.05394544
-0.7522218 0.6564259 -0.0571606
-0.7577938 0.6496975 -0.06034685
-0.7633015 0.6429138 -0.06350379
-0.7687448 0.6360753 -0.06663106
-0.7741233 0.6291829 -0.06972827
-0.7794369 0.6222371 -0.07279505
-0.7846853 0.6152387 -0.07583102
-0.7898683 0.6081883 -0.07883583
-0.7949856 0.6010867 -0.08180911
-0.800037 0.5939344 -0.0847505
-0.8050224 0.5867323 -0.08765965
-0.8099414 0.5794809 -0.0905362
-0.8147939 0.572181 -0.0933798
-0.8195797 0.5648333 -0.09619011
-0.8242985 0.5574383 -0.0989668
-0.8289503 0.549997 -0.1017095
-0.8335347 0.5425098 -0.1044179
-0.8380516 0.5349775 -0.1070917
-0.8425008 0.5274008 -0.1097305
-0.8468822 0.5197804 -0.1123341
-0.8511955 0.5121169 -0.1149021
-0.8554406 0.5044111 -0.1174341
-0.8596173 0.4966637 -0.1199299
-0.8637255 0.4888753 -0.1223892
-0.867765 0.4810467 -0.1248117
-0.8717357 0.4731784 -0.1271971
-0.8756373 0.4652714 -0.129545
-0.8794697 0.4573261 -0.1318553
-0.8832329 0.4493433 -0.1341275
-0.8869266 0.4413238 -0.1363615
-0.8905508 0.4332682 -0.1385569
-0.8941052 0.4251771 -0.1407135
-0.8975898 0.4170514 -0.142831
-0.9010044 0.4088917 -0.1449092
-0.9043489 0.4006986 -0.1469477
-0.9076232 0.392473 -0.1489464
-0.9108272 0.3842155 -0.150905
-0.9139607 0.3759267 -0.1528232
-0.9170237 0.3676075 -0.1547008
-0.920016 0.3592584 -0.1565376
-0.9229375 0.3508803 -0.1583333
-0.9257881 0.3424737 -0.1600877
-0.9285678 0.3340395 -0.1618006
-0.9312764 0.3255783 -0.1634718
-0.9339139 0.3170907 -0.165101
-0.9364801 0.3085776 -0.166688
-0.938975 0.3000396 -0.1682328
-0.9413984 0.2914775 -0.1697349
-0.9437504 0.2828918 -0.1711943
-0.9460307 0.2742834 -0.1726108
-0.9482394 0.2656529 -0.1739842
-0.9503764 0.2570011 -0.1753142
-0.9524416 0.2483286 -0.1766009
-0.9544349 0.2396362 -0.1778439
-0.9563563 0.2309246 -0.1790431
-0.9582057 0.2221944 -0.1801983
-0.9599831 0.2134465 -0.1813095
-0.9616883 0.2046814 -0.1823765
-0.9633213 0.1958999 -0.183399
-0.9648822 0.1871028 -0.1843771
-0.9663708 0.1782907 -0.1853105
-0.967787 0.1694643 -0.1861992
-0.9691309 0.1606243 -0.187043
-0.9704024 0.1517715 -0.1878419
-0.9716015 0.1429066 -0.1885956
-0.972728 0.1340303 -0.1893042
-0.9737821 0.1251432 -0.1899674
-0.9747636 0.1162462 -0.1905854
-0.9756725 0.1073399 -0.1911578
-0.9765088 0.09842502 -0.1916848
-0.9772725 0.08950229 -0.1921662
-0.9779635 0.08057242 -0.1926019
-0.9785818 0.07163612 -0.1929919
-0.9791275 0.0626941 -0.1933361
-0.9796004 0.05374709 -0.1936346
-0.9800006 0.04479579 -0.1938871
-0.980328 0.03584092 -0.1940938
-0.9805827 0.02688319 -0.1942546
-0.9807646 0.01792332 -0.1943695
-0.9808738 0.008962016 -0.1944385
-0.9809102 1.112485e-09 -0.1944614
-0.9808738 -0.008962014 -0.1944385
-0.9807646 -0.01792331 -0.1943695
-0.9805827 -0.02688319 -0.1942546
-0.980328 -0.03584092 -0.1940938
-0.9800006 -0.04479579 -0.1938871
-0.9796004 -0.05374709 -0.1936346
-0.9791275 -0.0626941 -0.1933361
-0.9785818 -0.07163612 -0.1929919
-0.9779635 -0.08057242 -0.1926019
-0.9772725 -0.08950229 -0.1921662
-0.9765088 -0.09842502 -0.1916848
-0.9756725 -0.1073399 -0.1911578
-0.9747636 -0.1162462 -0.1905854
-0.9737821 -0.1251432 -0.1899674
-0.972728 -0.1340303 -0.1893042
-0.9716015 -0.1429066 -0.1885956
-0.9704024 -0.1517715 -0.1878419
-0.9691309 -0.1606243 -0.187043
-0.967787 -0.1694643 -0.1861992
-0.9663708 -0.1782906 -0.1853105
-0.9648822 -0.1871028 -0.1843771
-0.9633213 -0.1958999 -0.183399
-0.9616883 -0.2046814 -0.1823765
-0.9599831 -0.2134465 -0.1813095
-0.9582057 -0.2221944 -0.1801983
-0.9563563 -0.2309246 -0.1790431
-0.9544349 -0.2396362 -0.1778439
-0.9524416 -0.2483286 -0.1766009
-0.9503764 -0.2570011 -0.1753142
-0.9482394 -0.2656529 -0.1739842
-0.9460307 -0.2742834 -0.1726108
-0.9437504 -0.2828918 -0.1711943
-0.9413984 -0.2914775 -0.1697349
-0.938975 -0.3000396 -0.1682328
-0.9364801 -0.3085776 -0.166688
-0.9339139 -0.3170907 -0.165101
-0.9312764 -0.3255783 -0.1634718
-0.9285678 -0.3340395 -0.1618006
-0.9257881 -0.3424737 -0.1600877
-0.9229375 -0.3508803 -0.1583333
-0.920016 -0.3592584 -0.1565376
-0.9170237 -0.3676075 -0.1547008
-0.9139607 -0.3759267 -0.1528232
-0.9108272 -0.3842155 -0.150905
-0.9076232 -0.392473 -0.1489464
-0.9043489 -0.4006986 -0.1469477
-0.9010044 -0.4088917 -0.1449092