# vtk DataFile Version 2.0
Written badly by Kevin Korner
ASCII
DATASET POLYDATA
POINTS 350 FLOAT
0 0 0
0.00286533 0 0
0.005725665 -0.0001614187 5.038986e-05
0.008570366 -0.0004872241 0.0001582856
0.01138784 -0.0009793234 0.0003309611
0.01416557 -0.001638397 0.0005757562
0.01689024 -0.002463734 0.000899969
0.01954779 -0.003453077 0.001310734
0.0221236 -0.004602483 0.001814885
0.02460265 -0.005906208 0.002418813
0.02696973 -0.007356618 0.00312831
0.02920966 -0.008944142 0.003948417
0.0313076 -0.01065727 0.004883271
0.03324928 -0.0124826 0.005935965
0.03502131 -0.01440493 0.007108419
0.03661148 -0.01640743 0.008401277
0.038009 -0.01847183 0.00981383
0.03920479 -0.02057869 0.01134397
0.04019168 -0.02270772 0.01298818
0.04096459 -0.02483806 0.01474157
0.04152064 -0.0269487 0.01659793
0.04185924 -0.02901883 0.01854986
0.04198208 -0.03102817 0.02058888
0.04189306 -0.03295734 0.0227056
0.0415982 -0.03478817 0.02488991
0.04110547 -0.03650398 0.02713119
0.04042456 -0.03808978 0.02941849
0.03956667 -0.03953244 0.03174074
0.03854422 -0.04082085 0.03408695
0.03737058 -0.04194589 0.0364464
0.0360598 -0.04290051 0.03880874
0.03462632 -0.04367964 0.0411642
0.03308472 -0.04428012 0.04350365
0.03144952 -0.04470055 0.0458187
0.02973493 -0.04494119 0.04810176
0.02795467 -0.04500374 0.05034606
0.02612188 -0.0448912 0.05254568
0.02424894 -0.04460768 0.05469553
0.02234744 -0.04415818 0.05679132
0.02042807 -0.04354849 0.05882956
0.01850065 -0.04278496 0.06080748
0.01657404 -0.04187439 0.06272299
0.01465622 -0.04082387 0.0645746
0.01275426 -0.03964067 0.06636142
0.0108744 -0.03833213 0.06808303
0.009022031 -0.03690556 0.06973946
0.007201807 -0.03536819 0.07133112
0.005417657 -0.03372708 0.07285876
0.003672855 -0.0319891 0.07432341
0.001970076 -0.03016085 0.07572632
0.000311448 -0.02824867 0.07706894
-0.001301391 -0.02625859 0.07835286
-0.002867241 -0.02419635 0.07957981
-0.004385293 -0.02206737 0.08075159
-0.005855081 -0.01987674 0.08187007
-0.007276438 -0.01762925 0.08293714
-0.008649462 -0.01532938 0.08395475
-0.009974471 -0.01298131 0.08492481
-0.01125198 -0.01058893 0.08584924
-0.01248266 -0.008155839 0.08672993
-0.01366733 -0.005685404 0.08756876
-0.01480691 -0.003180721 0.08836753
-0.01590242 -0.0006446558 0.08912802
-0.01695494 0.001920148 0.08985196
-0.01796562 0.004511254 0.09054102
-0.01893566 0.007126419 0.09119681
-0.01986625 0.009763581 0.09182089
-0.02075865 0.01242085 0.09241476
-0.0216141 0.01509648 0.09297985
-0.02243385 0.01778888 0.09351754
-0.02321914 0.02049659 0.09402915
-0.0239712 0.02321827 0.09451595
-0.02469125 0.02595269 0.09497914
-0.02538048 0.02869875 0.09541987
-0.02604008 0.03145541 0.09583925
-0.02667118 0.03422174 0.09623832
-0.02727491 0.03699688 0.09661808
-0.02785236 0.03978005 0.09697948
-0.0284046 0.04257054 0.09732343
-0.02893264 0.04536771 0.09765079
-0.02943749 0.04817095 0.09796237
-0.02992012 0.05097972 0.09825895
-0.03038145 0.05379354 0.09854129
-0.03082238 0.05661195 0.09881006
-0.03124379 0.05943455 0.09906596
-0.0316465 0.06226095 0.09930961
-0.03203133 0.06509083 0.09954161
-0.03239904 0.06792387 0.09976254
-0.03275038 0.07075978 0.09997295
-0.03308606 0.07359831 0.1001733
-0.03340678 0.07643923 0.1003642
-0.03371317 0.07928232 0.100546
-0.03400589 0.0821274 0.1007192
-0.03428552 0.08497427 0.1008842
-0.03455265 0.08782279 0.1010415
-0.03480784 0.09067279 0.1011913
-0.0350516 0.09352417 0.101334
-0.03528445 0.09637678 0.10147
-0.03550688 0.09923052 0.1015997
-0.03571935 0.1020853 0.1017232
-0.0359223 0.104941 0.101841
-0.03611615 0.1077976 0.1019533
-0.03630131 0.1106549 0.1020603
-0.03647818 0.1135129 0.1021623
-0.03664711 0.1163716 0.1022595
-0.03680846 0.1192309 0.1023522
-0.03696258 0.1220907 0.1024406
-0.03710977 0.124951 0.1025249
-0.03725036 0.1278118 0.1026052
-0.03738463 0.1306729 0.1026818
-0.03751287 0.1335345 0.1027549
-0.03763534 0.1363963 0.1028246
-0.0377523 0.1392585 0.102891
-0.037864 0.1421209 0.1029543
-0.03797066 0.1449837 0.1030147
-0.03807252 0.1478466 0.1030723
-0.03816979 0.1507097 0.1031272
-0.03826266 0.1535731 0.1031795
-0.03835134 0.1564366 0.1032295
-0.03843601 0.1593003 0.1032771
-0.03851685 0.1621641 0.1033225
-0.03859402 0.1650281 0.1033657
-0.03866769 0.1678922 0.103407
-0.03873801 0.1707564 0.1034463
-0.03880513 0.1736207 0.1034838
-0.03886919 0.1764851 0.1035196
-0.03893032 0.1793495 0.1035536
-0.03898865 0.1822141 0.1035861
-0.03904431 0.1850787 0.103617
-0.03909741 0.1879434 0.1036465
-0.03914806 0.1908081 0.1036746
-0.03919637 0.1936729 0.1037014
-0.03924244 0.1965378 0.1037269
-0.03928636 0.1994027 0.1037512
-0.03932823 0.2022676 0.1037743
-0.03936814 0.2051326 0.1037963
-0.03940616 0.2079976 0.1038172
-0.03944238 0.2108626 0.1038372
-0.03947688 0.2137277 0.1038561
-0.03950972 0.2165927 0.1038742
-0.03954098 0.2194578 0.1038913
-0.03957072 0.222323 0.1039076
-0.039599 0.2251881 0.1039231
-0.03962588 0.2280533 0.1039378
-0.03965143 0.2309185 0.1039518
-0.03967568 0.2337837 0.1039651
-0.0396987 0.2366489 0.1039776
-0.03972053 0.2395141 0.1039895
-0.03974121 0.2423793 0.1040008
-0.0397608 0.2452446 0.1040114
-0.03977933 0.2481098 0.1040215
-0.03979683 0.2509751 0.104031
-0.03981336 0.2538404 0.10404
-0.03982893 0.2567056 0.1040484
-0.03984359 0.2595709 0.1040564
-0.03985736 0.2624362 0.1040638
-0.03987028 0.2653015 0.1040708
-0.03988236 0.2681668 0.1040774
-0.03989365 0.2710321 0.1040835
-0.03990415 0.2738974 0.1040891
-0.03991389 0.2767627 0.1040944
-0.03992289 0.279628 0.1040992
-0.03993118 0.2824933 0.1041037
-0.03993876 0.2853586 0.1041078
-0.03994566 0.288224 0.1041115
-0.03995188 0.2910893 0.1041149
-0.03995744 0.2939546 0.1041179
-0.03996236 0.2968199 0.1041205
-0.03996664 0.2996853 0.1041228
-0.0399703 0.3025506 0.1041248
-0.03997333 0.3054159 0.1041264
-0.03997575 0.3082812 0.1041277
-0.03997756 0.3111466 0.1041287
-0.03997876 0.3140119 0.1041293
-0.03997936 0.3168772 0.1041296
-0.03997936 0.3197426 0.1041296
-0.03997876 0.3226079 0.1041293
-0.03997756 0.3254732 0.1041287
-0.03997575 0.3283385 0.1041277
-0.03997333 0.3312039 0.1041264
-0.0399703 0.3340692 0.1041248
-0.03996664 0.3369345 0.1041228
-0.03996236 0.3397998 0.1041205
-0.03995744 0.3426652 0.1041179
-0.03995188 0.3455305 0.1041149
-0.03994566 0.3483958 0.1041115
-0.03993876 0.3512611 0.1041078
-0.03993118 0.3541264 0.1041037
-0.03992289 0.3569918 0.1040992
-0.03991389 0.3598571 0.1040944
-0.03990415 0.3627224 0.1040891
-0.03989365 0.3655877 0.1040835
-0.03988236 0.368453 0.1040774
-0.03987028 0.3713183 0.1040708
-0.03985736 0.3741836 0.1040638
-0.03984359 0.3770489 0.1040564
-0.03982893 0.3799141 0.1040484
-0.03981336 0.3827794 0.10404
-0.03979683 0.3856447 0.104031
-0.03977933 0.3885099 0.1040215
-0.0397608 0.3913752 0.1040114
-0.03974121 0.3942404 0.1040008
-0.03972053 0.3971057 0.1039895
-0.0396987 0.3999709 0.1039776
-0.03967568 0.4028361 0.1039651
-0.03965143 0.4057013 0.1039518
-0.03962588 0.4085665 0.1039378
-0.039599 0.4114316 0.1039231
-0.03957072 0.4142968 0.1039076
-0.03954098 0.4171619 0.1038913
-0.03950972 0.420027 0.1038742
-0.03947688 0.4228921 0.1038561
-0.03944238 0.4257572 0.1038372
-0.03940616 0.4286222 0.1038172
-0.03936814 0.4314872 0.1037963
-0.03932823 0.4343522 0.1037743
-0.03928636 0.4372171 0.1037512
-0.03924244 0.440082 0.1037269
-0.03919637 0.4429468 0.1037014
-0.03914806 0.4458116 0.1036746
-0.03909741 0.4486764 0.1036465
-0.03904431 0.4515411 0.103617
-0.03898865 0.4544057 0.1035861
-0.03893032 0.4572702 0.1035536
-0.03886919 0.4601347 0.1035196
-0.03880513 0.4629991 0.1034838
-0.03873801 0.4658634 0.1034463
-0.03866769 0.4687276 0.103407
-0.03859402 0.4715917 0.1033657
-0.03851685 0.4744556 0.1033225
-0.03843601 0.4773195 0.1032771
-0.03835134 0.4801832 0.1032295
-0.03826266 0.4830467 0.1031795
-0.03816979 0.48591 0.1031272
-0.03807252 0.4887732 0.1030723
-0.03797066 0.4916361 0.1030147
-0.037864 0.4944988 0.1029543
-0.0377523 0.4973613 0.102891
-0.03763534 0.5002234 0.1028246
-0.03751287 0.5030853 0.1027549
-0.03738463 0.5059468 0.1026818
-0.03725036 0.508808 0.1026052
-0.03710977 0.5116687 0.1025249
-0.03696258 0.514529 0.1024406
-0.03680846 0.5173889 0.1023522
-0.03664711 0.5202481 0.1022595
-0.03647818 0.5231068 0.1021623
-0.03630131 0.5259649 0.1020603
-0.03611615 0.5288222 0.1019533
-0.03592229 0.5316788 0.101841
-0.03571935 0.5345345 0.1017232
-0.03550688 0.5373893 0.1015997
-0.03528445 0.540243 0.10147
-0.0350516 0.5430956 0.101334
-0.03480783 0.545947 0.1011913
-0.03455265 0.548797 0.1010415
-0.03428552 0.5516455 0.1008842
-0.03400589 0.5544924 0.1007192
-0.03371317 0.5573374 0.100546
-0.03340678 0.5601805 0.1003642
-0.03308606 0.5630215 0.1001733
-0.03275038 0.56586 0.09997295
-0.03239904 0.5686959 0.09976254
-0.03203133 0.5715289 0.09954161
-0.0316465 0.5743588 0.09930961
-0.03124379 0.5771852 0.09906596
-0.03082238 0.5800078 0.09881006
-0.03038145 0.5828262 0.09854128
-0.02992012 0.58564 0.09825895
-0.02943749 0.5884488 0.09796237
-0.02893264 0.5912521 0.09765079
-0.0284046 0.5940492 0.09732343
-0.02785236 0.5968397 0.09697948
-0.02727491 0.5996229 0.09661808
-0.02667118 0.602398 0.09623832
-0.02604007 0.6051644 0.09583925
-0.02538048 0.607921 0.09541987
-0.02469125 0.6106671 0.09497914
-0.0239712 0.6134015 0.09451595
-0.02321914 0.6161232 0.09402915
-0.02243385 0.6188309 0.09351754
-0.0216141 0.6215233 0.09297985
-0.02075865 0.6241989 0.09241476
-0.01986625 0.6268562 0.09182089
-0.01893565 0.6294934 0.09119681
-0.01796562 0.6321085 0.09054102
-0.01695494 0.6346996 0.08985196
-0.01590242 0.6372644 0.08912802
-0.01480691 0.6398005 0.08836753
-0.01366733 0.6423052 0.08756876
-0.01248266 0.6447756 0.08672993
-0.01125198 0.6472087 0.08584924
-0.009974471 0.6496011 0.08492481
-0.008649461 0.6519492 0.08395475
-0.007276438 0.654249 0.08293714
-0.00585508 0.6564965 0.08187007
-0.004385293 0.6586871 0.08075159
-0.002867241 0.6608161 0.07957981
-0.00130139 0.6628784 0.07835286
0.0003114483 0.6648684 0.07706894
0.001970076 0.6667806 0.07572632
0.003672855 0.6686089 0.07432341
0.005417657 0.6703469 0.07285876
0.007201807 0.671988 0.07133112
0.009022031 0.6735253 0.06973946
0.0108744 0.6749519 0.06808303
0.01275426 0.6762604 0.06636142
0.01465622 0.6774436 0.0645746
0.01657404 0.6784942 0.06272299
0.01850065 0.6794047 0.06080748
0.02042807 0.6801683 0.05882956
0.02234744 0.680778 0.05679132
0.02424894 0.6812274 0.05469553
0.02612188 0.681511 0.05254568
0.02795467 0.6816235 0.05034606
0.02973493 0.681561 0.04810176
0.03144952 0.6813203 0.0458187
0.03308472 0.6808999 0.04350365
0.03462632 0.6802994 0.0411642
0.0360598 0.6795203 0.03880874
0.03737058 0.6785657 0.0364464
0.03854422 0.6774406 0.03408695
0.03956667 0.6761522 0.03174074
0.04042456 0.6747095 0.02941849
0.04110547 0.6731238 0.02713119
0.0415982 0.6714079 0.02488991
0.04189306 0.6695771 0.0227056
0.04198208 0.6676479 0.02058888
0.04185924 0.6656386 0.01854986
0.04152064 0.6635685 0.01659793
0.04096459 0.6614578 0.01474157
0.04019168 0.6593275 0.01298818
0.03920479 0.6571985 0.01134397
0.038009 0.6550916 0.00981383
0.03661148 0.6530272 0.008401277
0.03502131 0.6510247 0.007108419
0.03324928 0.6491024 0.005935965
0.0313076 0.647277 0.004883271
0.02920966 0.6455639 0.003948417
0.02696973 0.6439764 0.00312831
0.02460265 0.642526 0.002418813
0.0221236 0.6412223 0.001814885
0.01954779 0.6400728 0.001310734
0.01689024 0.6390835 0.000899969
0.01416557 0.6382582 0.0005757562
0.01138784 0.6375991 0.0003309611
0.008570366 0.637107 0.0001582856
0.005725665 0.6367812 5.038986e-05
0.00286533 0.6366198 0
0 0.6366198 0

LINES 349 1047
2 0 1
2 1 2
2 2 3
2 3 4
2 4 5
2 5 6
2 6 7
2 7 8
2 8 9
2 9 10
2 10 11
2 11 12
2 12 13
2 13 14
2 14 15
2 15 16
2 16 17
2 17 18
2 18 19
2 19 20
2 20 21
2 21 22
2 22 23
2 23 24
2 24 25
2 25 26
2 26 27
2 27 28
2 28 29
2 29 30
2 30 31
2 31 32
2 32 33
2 33 34
2 34 35
2 35 36
2 36 37
2 37 38
2 38 39
2 39 40
2 40 41
2 41 42
2 42 43
2 43 44
2 44 45
2 45 46
2 46 47
2 47 48
2 48 49
2 49 50
2 50 51
2 51 52
2 52 53
2 53 54
2 54 55
2 55 56
2 56 57
2 57 58
2 58 59
2 59 60
2 60 61
2 61 62
2 62 63
2 63 64
2 64 65
2 65 66
2 66 67
2 67 68
2 68 69
2 69 70
2 70 71
2 71 72
2 72 73
2 73 74
2 74 75
2 75 76
2 76 77
2 77 78
2 78 79
2 79 80
2 80 81
2 81 82
2 82 83
2 83 84
2 84 85
2 85 86
2 86 87
2 87 88
2 88 89
2 89 90
2 90 91
2 91 92
2 92 93
2 93 94
2 94 95
2 95 96
2 96 97
2 97 98
2 98 99
2 99 100
2 100 101
2 101 102
2 102 103
2 103 104
2 104 105
2 105 106
2 106 107
2 107 108
2 108 109
2 109 110
2 110 111
2 111 112
2 112 113
2 113 114
2 114 115
2 115 116
2 116 117
2 117 118
2 118 119
2 119 120
2 120 121
2 121 122
2 122 123
2 123 124
2 124 125
2 125 126
2 126 127
2 127 128
2 128 129
2 129 130
2 130 131
2 131 132
2 132 133
2 133 134
2 134 135
2 135 136
2 136 137
2 137 138
2 138 139
2 139 140
2 140 141
2 141 142
2 142 143
2 143 144
2 144 145
2 145 146
2 146 147
2 147 148
2 148 149
2 149 150
2 150 151
2 151 152
2 152 153
2 153 154
2 154 155
2 155 156
2 156 157
2 157 158
2 158 159
2 159 160
2 160 161
2 161 162
2 162 163
2 163 164
2 164 165
2 165 166
2 166 167
2 167 168
2 168 169
2 169 170
2 170 171
2 171 172
2 172 173
2 173 174
2 174 175
2 175 176
2 176 177
2 177 178
2 178 179
2 179 180
2 180 181
2 181 182
2 182 183
2 183 184
2 184 185
2 185 186
2 186 187
2 187 188
2 188 189
2 189 190
2 190 191
2 191 192
2 192 193
2 193 194
2 194 195
2 195 196
2 196 197
2 197 198
2 198 199
2 199 200
2 200 201
2 201 202
2 202 203
2 203 204
2 204 205
2 205 206
2 206 207
2 207 208
2 208 209
2 209 210
2 210 211
2 211 212
2 212 213
2 213 214
2 214 215
2 215 216
2 216 217
2 217 218
2 218 219
2 219 220
2 220 221
2 221 222
2 222 223
2 223 224
2 224 225
2 225 226
2 226 227
2 227 228
2 228 229
2 229 230
2 230 231
2 231 232
2 232 233
2 233 234
2 234 235
2 235 236
2 236 237
2 237 238
2 238 239
2 239 240
2 240 241
2 241 242
2 242 243
2 243 244
2 244 245
2 245 246
2 246 247
2 247 248
2 248 249
2 249 250
2 250 251
2 251 252
2 252 253
2 253 254
2 254 255
2 255 256
2 256 257
2 257 258
2 258 259
2 259 260
2 260 261
2 261 262
2 262 263
2 263 264
2 264 265
2 265 266
2 266 267
2 267 268
2 268 269
2 269 270
2 270 271
2 271 272
2 272 273
2 273 274
2 274 275
2 275 276
2 276 277
2 277 278
2 278 279
2 279 280
2 280 281
2 281 282
2 282 283
2 283 284
2 284 285
2 285 286
2 286 287
2 287 288
2 288 289
2 289 290
2 290 291
2 291 292
2 292 293
2 293 294
2 294 295
2 295 296
2 296 297
2 297 298
2 298 299
2 299 300
2 300 301
2 301 302
2 302 303
2 303 304
2 304 305
2 305 306
2 306 307
2 307 308
2 308 309
2 309 310
2 310 311
2 311 312
2 312 313
2 313 314
2 314 315
2 315 316
2 316 317
2 317 318
2 318 319
2 319 320
2 320 321
2 321 322
2 322 323
2 323 324
2 324 325
2 325 326
2 326 327
2 327 328
2 328 329
2 329 330
2 330 331
2 331 332
2 332 333
2 333 334
2 334 335
2 335 336
2 336 337
2 337 338
2 338 339
2 339 340
2 340 341
2 341 342
2 342 343
2 343 344
2 344 345
2 345 346
2 346 347
2 347 348
2 348 349


POINT_DATA 350
SCALARS a FLOAT 1
LOOKUP_TABLE default
0.0005894628
0.0005894628
0.0005894628
0.0005894628
0.0005894628
0.0005894628
0.0005894628
0.0005894628
0.0005894628
0.0005894628
0.0005894628
0.0005894628
0.0005894628
0.0005894628
0.0005894628
0.0005894628
0.0005894628
0.0005894628
0.0005894628
0.0005894628
0.0005894628
0.0005894628
0.0005894628
0.0005894628
0.0005894628
0.0005894628
0.0005894628
0.0005894628
0.0005894628
0.0005894628
0.0005894628
0.0005894628
0.0005894628
0.0005894628
0.0005894628
0.0005894628
0.0005894628
0.0005894628
0.0005894628
0.0005894628
0.0005894628
0.0005894628
0.0005894628
0.0005894628
0.0005894628
0.0005894628
0.0005894628
0.0005894628
0.0005894628
0.0005894628
0.0005894628
0.0005894628
0.0005894628
0.0005894628
0.0005894628
0.0005894628
0.0005894628
0.0005894628
0.0005894628
0.0005894628
0.0005894628
0.0005894628
0.0005894628
0.0005894628
0.0005894628
0.0005894628
0.0005894628
0.0005894628
0.0005894628
0.0005894628
0.0005894628
0.0005894628
0.0005894628
0.0005894628
0.0005894628
0.0005894628
0.0005894628
0.0005894628
0.0005894628
0.0005894628
0.0005894628
0.0005894628
0.0005894628
0.0005894628
0.0005894628
0.0005894628
0.0005894628
0.0005894628
0.0005894628
0.0005894628
0.0005894628
0.0005894628
0.0005894628
0.0005894628
0.0005894628
0.0005894628
0.0005894628
0.0005894628
0.0005894628
0.0005894628
0.0005894628
0.0005894628
0.0005894628
0.0005894628
0.0005894628
0.0005894628
0.0005894628
0.0005894628
0.0005894628
0.0005894628
0.0005894628
0.0005894628
0.0005894628
0.0005894628
0.0005894628
0.0005894628
0.0005894628
0.0005894628
0.0005894628
0.0005894628
0.0005894628
0.0005894628
0.0005894628
0.0005894628
0.0005894628
0.0005894628
0.0005894628
0.0005894628
0.0005894628
0.0005894628
0.0005894628
0.0005894628
0.0005894628
0.0005894628
0.0005894628
0.0005894628
0.0005894628
0.0005894628
0.0005894628
0.0005894628
0.0005894628
0.0005894628
0.0005894628
0.0005894628
0.0005894628
0.0005894628
0.0005894628
0.0005894628
0.0005894628
0.0005894628
0.0005894628
0.0005894628
0.0005894628
0.0005894628
0.0005894628
0.0005894628
0.0005894628
0.0005894628
0.0005894628
0.0005894628
0.0005894628
0.0005894628
0.0005894628
0.0005894628
0.0005894628
0.0005894628
0.0005894628
0.0005894628
0.0005894628
0.0005894628
0.0005894628
0.0005894628
0.0005894628
0.0005894628
0.0005894628
0.0005894628
0.0005894628
0.0005894628
0.0005894628
0.0005894628
0.0005894628
0.0005894628
0.0005894628
0.0005894628
0.0005894628
0.0005894628
0.0005894628
0.0005894628
0.0005894628
0.0005894628
0.0005894628
0.0005894628
0.0005894628
0.0005894628
0.0005894628
0.0005894628
0.0005894628
0.0005894628
0.0005894628
0.0005894628
0.0005894628
0.0005894628
0.0005894628
0.0005894628
0.0005894628
0.0005894628
0.0005894628
0.0005894628
0.0005894628
0.0005894628
0.0005894628
0.0005894628
0.0005894628
0.0005894628
0.0005894628
0.0005894628
0.0005894628
0.0005894628
0.0005894628
0.0005894628
0.0005894628
0.0005894628
0.0005894628
0.0005894628
0.0005894628
0.0005894628
0.0005894628
0.0005894628
0.0005894628
0.0005894628
0.0005894628
0.0005894628
0.0005894628
0.0005894628
0.0005894628
0.0005894628
0.0005894628
0.0005894628
0.0005894628
0.0005894628
0.0005894628
0.0005894628
0.0005894628
0.0005894628
0.0005894628
0.0005894628
0.0005894628
0.0005894628
0.0005894628
0.0005894628
0.0005894628
0.0005894628
0.0005894628
0.0005894628
0.0005894628
0.0005894628
0.0005894628
0.0005894628
0.0005894628
0.0005894628
0.0005894628
0.0005894628
0.0005894628
0.0005894628
0.0005894628
0.0005894628
0.0005894628
0.0005894628
0.0005894628
0.0005894628
0.0005894628
0.0005894628
0.0005894628
0.0005894628
0.0005894628
0.0005894628
0.0005894628
0.0005894628
0.0005894628
0.0005894628
0.0005894628
0.0005894628
0.0005894628
0.0005894628
0.0005894628
0.0005894628
0.0005894628
0.0005894628
0.0005894628
0.0005894628
0.0005894628
0.0005894628
0.0005894628
0.0005894628
0.0005894628
0.0005894628
0.0005894628
0.0005894628
0.0005894628
0.0005894628
0.0005894628
0.0005894628
0.0005894628
0.0005894628
0.0005894628
0.0005894628
0.0005894628
0.0005894628
0.0005894628
0.0005894628
0.0005894628
0.0005894628
0.0005894628
0.0005894628
0.0005894628
0.0005894628
0.0005894628
0.0005894628
0.0005894628
0.0005894628
0.0005894628
0.0005894628
0.0005894628
0.0005894628
0.0005894628
0.0005894628
0.0005894628
0.0005894628
0.0005894628
0.0005894628
0.0005894628
0.0005894628
0.0005894628
0.0005894628
0.0005894628
0.0005894628
0.0005894628
0.0005894628
0.0005894628
0.0005894628
0.0005894628
0.0005894628
0.0005894628
0.0005894628
0.0005894628
0.0005894628
0.0005894628
0.0005894628
0.0005894628
0.0005894628


SCALARS b FLOAT 1
LOOKUP_TABLE default
0.04420971
0.04420971
0.04420971
0.04420971
0.04420971
0.04420971
0.04420971
0.04420971
0.04420971
0.04420971
0.04420971
0.04420971
0.04420971
0.04420971
0.04420971
0.04420971
0.04420971
0.04420971
0.04420971
0.04420971
0.04420971
0.04420971
0.04420971
0.04420971
0.04420971
0.04420971
0.04420971
0.04420971
0.04420971
0.04420971
0.04420971
0.04420971
0.04420971
0.04420971
0.04420971
0.04420971
0.04420971
0.04420971
0.04420971
0.04420971
0.04420971
0.04420971
0.04420971
0.04420971
0.04420971
0.04420971
0.04420971
0.04420971
0.04420971
0.04420971
0.04420971
0.04420971
0.04420971
0.04420971
0.04420971
0.04420971
0.04420971
0.04420971
0.04420971
0.04420971
0.04420971
0.04420971
0.04420971
0.04420971
0.04420971
0.04420971
0.04420971
0.04420971
0.04420971
0.04420971
0.04420971
0.04420971
0.04420971
0.04420971
0.04420971
0.04420971
0.04420971
0.04420971
0.04420971
0.04420971
0.04420971
0.04420971
0.04420971
0.04420971
0.04420971
0.04420971
0.04420971
0.04420971
0.04420971
0.04420971
0.04420971
0.04420971
0.04420971
0.04420971
0.04420971
0.04420971
0.04420971
0.04420971
0.04420971
0.04420971
0.04420971
0.04420971
0.04420971
0.04420971
0.04420971
0.04420971
0.04420971
0.04420971
0.04420971
0.04420971
0.04420971
0.04420971
0.04420971
0.04420971
0.04420971
0.04420971
0.04420971
0.04420971
0.04420971
0.04420971
0.04420971
0.04420971
0.04420971
0.04420971
0.04420971
0.04420971
0.04420971
0.04420971
0.04420971
0.04420971
0.04420971
0.04420971
0.04420971
0.04420971
0.04420971
0.04420971
0.04420971
0.04420971
0.04420971
0.04420971
0.04420971
0.04420971
0.04420971
0.04420971
0.04420971
0.04420971
0.04420971
0.04420971
0.04420971
0.04420971
0.04420971
0.04420971
0.04420971
0.04420971
0.04420971
0.04420971
0.04420971
0.04420971
0.04420971
0.04420971
0.04420971
0.04420971
0.04420971
0.04420971
0.04420971
0.04420971
0.04420971
0.04420971
0.04420971
0.04420971
0.04420971
0.04420971
0.04420971
0.04420971
0.04420971
0.04420971
0.04420971
0.04420971
0.04420971
0.04420971
0.04420971
0.04420971
0.04420971
0.04420971
0.04420971
0.04420971
0.04420971
0.04420971
0.04420971
0.04420971
0.04420971
0.04420971
0.04420971
0.04420971
0.04420971
0.04420971
0.04420971
0.04420971
0.04420971
0.04420971
0.04420971
0.04420971
0.04420971
0.04420971
0.04420971
0.04420971
0.04420971
0.04420971
0.04420971
0.04420971
0.04420971
0.04420971
0.04420971
0.04420971
0.04420971
0.04420971
0.04420971
0.04420971
0.04420971
0.04420971
0.04420971
0.04420971
0.04420971
0.04420971
0.04420971
0.04420971
0.04420971
0.04420971
0.04420971
0.04420971
0.04420971
0.04420971
0.04420971
0.04420971
0.04420971
0.04420971
0.04420971
0.04420971
0.04420971
0.04420971
0.04420971
0.04420971
0.04420971
0.04420971
0.04420971
0.04420971
0.04420971
0.04420971
0.04420971
0.04420971
0.04420971
0.04420971
0.04420971
0.04420971
0.04420971
0.04420971
0.04420971
0.04420971
0.04420971
0.04420971
0.04420971
0.04420971
0.04420971
0.04420971
0.04420971
0.04420971
0.04420971
0.04420971
0.04420971
0.04420971
0.04420971
0.04420971
0.04420971
0.04420971
0.04420971
0.04420971
0.04420971
0.04420971
0.04420971
0.04420971
0.04420971
0.04420971
0.04420971
0.04420971
0.04420971
0.04420971
0.04420971
0.04420971
0.04420971
0.04420971
0.04420971
0.04420971
0.04420971
0.04420971
0.04420971
0.04420971
0.04420971
0.04420971
0.04420971
0.04420971
0.04420971
0.04420971
0.04420971
0.04420971
0.04420971
0.04420971
0.04420971
0.04420971
0.04420971
0.04420971
0.04420971
0.04420971
0.04420971
0.04420971
0.04420971
0.04420971
0.04420971
0.04420971
0.04420971
0.04420971
0.04420971
0.04420971
0.04420971
0.04420971
0.04420971
0.04420971
0.04420971
0.04420971
0.04420971
0.04420971
0.04420971
0.04420971
0.04420971
0.04420971
0.04420971
0.04420971
0.04420971
0.04420971
0.04420971
0.04420971
0.04420971
0.04420971
0.04420971
0.04420971
0.04420971
0.04420971
0.04420971
0.04420971
0.04420971
0.04420971


VECTORS d1 FLOAT
0 -0.9594125 0.2820066
-0.05900794 -0.9477706 0.3134469
-0.1197108 -0.9313164 0.3439755
-0.1817721 -0.9097394 0.3732735
-0.2447931 -0.8827653 0.4010009
-0.3083123 -0.8501677 0.4268001
-0.3718073 -0.8117802 0.4503025
-0.4346987 -0.7675082 0.471135
-0.4963569 -0.7173411 0.488929
-0.5561113 -0.6613622 0.5033292
-0.6132625 -0.5997571 0.5140044
-0.6670968 -0.53282 0.520658
-0.7169031 -0.4609559 0.5230389
-0.7619914 -0.3846799 0.5209516
-0.8017126 -0.3046116 0.5142652
-0.8354776 -0.2214659 0.5029214
-0.8627767 -0.1360387 0.4869393
-0.8831956 -0.04919 0.4664182
-0.89643 0.03817753 0.4415379
-0.9022961 0.1251411 0.4125548
-0.900736 0.2107819 0.3797968
-0.8918198 0.29421 0.3436537
-0.8757421 0.3745861 0.3045669
-0.8528141 0.4511435 0.2630163
-0.8234523 0.5232045 0.2195072
-0.788163 0.5901943 0.1745559
-0.7475255 0.6516502 0.1286768
-0.702173 0.7072259 0.08236898
-0.6527737 0.756692 0.03610593
-0.6000122 0.7999324 -0.009674178
-0.5445716 0.8369368 -0.05457557
-0.4871188 0.8677916 -0.09824992
-0.4282904 0.8926676 -0.1403994
-0.3686824 0.9118074 -0.1807775
-0.3088424 0.9255121 -0.2191888
-0.2492633 0.9341276 -0.2554867
-0.1903807 0.9380322 -0.2895699
-0.1325716 0.9376248 -0.3213791
-0.07615507 0.9333142 -0.3508918
-0.02139415 0.9255101 -0.3781181
0.03150062 0.9146157 -0.4030954
0.08236742 0.9010208 -0.4258838
0.1310886 0.8850979 -0.4465618
0.1775859 0.8671977 -0.4652219
0.2218156 0.8476472 -0.4819668
0.2637638 0.8267481 -0.4969067
0.303442 0.8047759 -0.5101556
0.3408826 0.7819802 -0.5218295
0.3761351 0.7585852 -0.532044
0.409263 0.7347904 -0.540913
0.4403398 0.710772 -0.5485471
0.4694473 0.6866844 -0.555053
0.4966725 0.6626614 -0.5605321
0.5221059 0.6388186 -0.5650807
0.5458397 0.6152541 -0.5687894
0.5679666 0.5920508 -0.5717428
0.5885784 0.5692775 -0.5740197
0.6077653 0.5469909 -0.5756929
0.6256149 0.5252364 -0.5768298
0.6422123 0.5040499 -0.5774921
0.6576388 0.4834585 -0.5777362
0.6719723 0.4634822 -0.5776136
0.6852869 0.4441343 -0.5771711
0.6976529 0.4254226 -0.5764512
0.7091365 0.4073502 -0.5754922
0.7198002 0.389916 -0.5743285
0.7297026 0.3731156 -0.5729912
0.7388986 0.3569416 -0.5715082
0.7474395 0.3413844 -0.5699042
0.7553735 0.3264324 -0.5682014
0.762745 0.3120724 -0.5664194
0.7695956 0.2982898 -0.5645758
0.775964 0.2850693 -0.5626859
0.781886 0.2723948 -0.5607632
0.7873949 0.2602496 -0.5588196
0.7925215 0.2486167 -0.5568657
0.7972943 0.237479 -0.5549103
0.8017398 0.2268193 -0.5529614
0.8058823 0.2166205 -0.5510257
0.8097444 0.2068654 -0.5491091
0.813347 0.1975373 -0.5472164
0.8167093 0.1886197 -0.5453517
0.8198492 0.1800965 -0.5435187
0.822783 0.1719517 -0.5417202
0.8255259 0.1641699 -0.5399585
0.8280919 0.1567362 -0.5382356
0.8304939 0.1496359 -0.5365528
0.8327438 0.142855 -0.5349114
0.8348525 0.1363797 -0.5333121
0.8368302 0.1301968 -0.5317555
0.8386863 0.1242937 -0.5302419
0.8404292 0.1186579 -0.5287713
0.8420669 0.1132778 -0.5273438
0.8436068 0.1081418 -0.5259591
0.8450555 0.1032391 -0.5246169
0.8464193 0.09855911 -0.5233167
0.847704 0.09409183 -0.5220581
0.8489148 0.08982757 -0.5208404
0.8500566 0.0857571 -0.5196629
0.8511338 0.08187156 -0.518525
0.8521508 0.07816249 -0.517426
0.8531113 0.07462178 -0.5163649
0.8540188 0.07124172 -0.5153411
0.8548768 0.06801491 -0.5143536
0.8556881 0.0649343 -0.5134017
0.8564558 0.06199316 -0.5124845
0.8571823 0.05918507 -0.5116011
0.8578701 0.0565039 -0.5107506
0.8585216 0.05394381 -0.5099321
0.8591388 0.05149922 -0.5091448
0.8597237 0.04916483 -0.5083877
0.8602781 0.04693555 -0.50766
0.8608037 0.04480657 -0.5069609
0.8613022 0.04277326 -0.5062894
0.8617751 0.04083124 -0.5056446
0.8622238 0.03897631 -0.5050258
0.8626495 0.03720447 -0.504432
0.8630536 0.03551191 -0.5038625
0.8634371 0.03389499 -0.5033164
0.8638013 0.03235024 -0.5027929
0.8641471 0.03087433 -0.5022913
0.8644755 0.02946411 -0.5018107
0.8647874 0.02811656 -0.5013505
0.8650836 0.02682879 -0.5009097
0.865365 0.02559805 -0.5004879
0.8656324 0.02442172 -0.5000842
0.8658863 0.02329727 -0.499698
0.8661277 0.02222232 -0.4993286
0.866357 0.02119457 -0.4989754
0.8665748 0.02021183 -0.4986377
0.8667818 0.01927201 -0.498315
0.8669785 0.0183731 -0.4980067
0.8671654 0.0175132 -0.4977122
0.8673429 0.01669047 -0.4974311
0.8675116 0.01590317 -0.4971626
0.8676718 0.01514961 -0.4969065
0.867824 0.0144282 -0.4966621
0.8679685 0.01373741 -0.4964291
0.8681058 0.01307577 -0.496207
0.868236 0.01244187 -0.4959953
0.8683597 0.01183437 -0.4957937
0.868477 0.01125197 -0.4956018
0.8685883 0.01069344 -0.4954191
0.8686937 0.0101576 -0.4952454
0.8687937 0.009643301 -0.4950803
0.8688884 0.009149459 -0.4949234
0.8689781 0.008675024 -0.4947745
0.8690629 0.00821899 -0.4946333
0.8691431 0.007780388 -0.4944994
0.8692189 0.007358289 -0.4943727
0.8692904 0.006951796 -0.4942528
0.8693578 0.006560047 -0.4941396
0.8694214 0.006182212 -0.4940327
0.8694811 0.005817489 -0.493932
0.8695372 0.005465103 -0.4938373
0.8695898 0.005124308 -0.4937483
0.869639 0.004794381 -0.493665
0.8696849 0.004474622 -0.4935871
0.8697277 0.004164353 -0.4935144
0.8697674 0.003862916 -0.4934469
0.8698041 0.00356967 -0.4933843
0.8698379 0.003283996 -0.4933266
0.869869 0.003005286 -0.4932737
0.8698973 0.002732949 -0.4932254
0.8699229 0.002466409 -0.4931816
0.8699459 0.002205099 -0.4931422
0.8699664 0.001948465 -0.4931072
0.8699843 0.001695964 -0.4930765
0.8699998 0.00144706 -0.49305
0.8700128 0.001201224 -0.4930277
0.8700234 0.0009579358 -0.4930095
0.8700317 0.0007166792 -0.4929953
0.8700375 0.0004769425 -0.4929853
0.870041 0.0002382172 -0.4929792
0.8700422 -2.827788e-09 -0.4929772
0.870041 -0.0002382229 -0.4929792
0.8700375 -0.0004769481 -0.4929853
0.8700317 -0.0007166848 -0.4929953
0.8700234 -0.0009579414 -0.4930095
0.8700128 -0.00120123 -0.4930277
0.8699998 -0.001447065 -0.49305
0.8699843 -0.00169597 -0.4930765
0.8699664 -0.001948471 -0.4931072
0.8699459 -0.002205104 -0.4931422
0.8699229 -0.002466414 -0.4931816
0.8698973 -0.002732955 -0.4932254
0.869869 -0.003005291 -0.4932737
0.8698379 -0.003284001 -0.4933266
0.8698041 -0.003569676 -0.4933843
0.8697674 -0.003862921 -0.4934469
0.8697277 -0.004164359 -0.4935144
0.8696849 -0.004474628 -0.4935871
0.869639 -0.004794387 -0.493665
0.8695898 -0.005124314 -0.4937483
0.8695372 -0.005465109 -0.4938373
0.8694811 -0.005817494 -0.493932
0.8694214 -0.006182218 -0.4940327
0.8693578 -0.006560053 -0.4941396
0.8692904 -0.006951801 -0.4942528
0.8692189 -0.007358294 -0.4943727
0.8691431 -0.007780394 -0.4944994
0.8690629 -0.008218995 -0.4946333
0.8689781 -0.00867503 -0.4947745
0.8688884 -0.009149464 -0.4949234
0.8687937 -0.009643306 -0.4950803
0.8686937 -0.0101576 -0.4952454
0.8685883 -0.01069345 -0.4954191
0.868477 -0.01125197 -0.4956018
0.8683597 -0.01183437 -0.4957937
0.868236 -0.01244188 -0.4959953
0.8681058 -0.01307578 -0.496207
0.8679685 -0.01373742 -0.4964291