# vtk DataFile Version 2.0
Written badly by Kevin Korner
ASCII
DATASET POLYDATA
POINTS 350 FLOAT
0 0 0
0.00286533 0 0
0.00572372 -0.0001981034 2.177716e-05
0.008560262 -0.0006001914 7.145394e-05
0.01135854 -0.001210692 0.0001554403
0.01410071 -0.002032278 0.0002803497
0.01676767 -0.003065566 0.000452894
0.01933923 -0.004308825 0.0006797597
0.02179444 -0.005757713 0.0009674648
0.02411189 -0.007405048 0.001322201
0.02627012 -0.00924065 0.001749666
0.02824808 -0.01125125 0.00225489
0.03002564 -0.0134205 0.002842066
0.03158408 -0.01572904 0.003514388
0.0329066 -0.01815477 0.004273919
0.03397884 -0.02067312 0.005121473
0.03478928 -0.02325748 0.006056541
0.03532966 -0.02587974 0.007077262
0.03559517 -0.02851083 0.008180427
0.03558469 -0.03112138 0.009361545
0.03530076 -0.03368234 0.01061494
0.03474954 -0.03616561 0.01193388
0.03394058 -0.03854466 0.01331078
0.03288654 -0.04079497 0.01473738
0.03160276 -0.04289456 0.01620495
0.03010682 -0.04482423 0.0177045
0.02841806 -0.04656784 0.01922701
0.02655703 -0.04811236 0.02076361
0.02454503 -0.04944795 0.02230573
0.02240359 -0.05056781 0.0238453
0.02015406 -0.05146803 0.02537478
0.01781723 -0.0521474 0.02688734
0.01541302 -0.05260708 0.02837683
0.01296022 -0.05285035 0.02983789
0.01047628 -0.05288231 0.03126588
0.007977241 -0.0527095 0.03265694
0.005477589 -0.05233968 0.03400789
0.002990278 -0.05178149 0.03531626
0.0005267201 -0.05104425 0.03658017
-0.001903165 -0.05013768 0.03779832
-0.004290883 -0.04907171 0.03896992
-0.006629279 -0.04785635 0.04009461
-0.008912441 -0.04650152 0.04117243
-0.01113559 -0.0450169 0.04220375
-0.01329498 -0.0434119 0.04318922
-0.01538778 -0.04169558 0.04412972
-0.01741198 -0.03987657 0.04502632
-0.01936629 -0.03796303 0.04588024
-0.02125004 -0.0359627 0.04669279
-0.0230631 -0.03388279 0.0474654
-0.0248058 -0.03173008 0.04819954
-0.02647885 -0.02951085 0.0488967
-0.02808328 -0.02723093 0.04955842
-0.02962041 -0.02489571 0.0501862
-0.03109174 -0.02251016 0.05078157
-0.03249895 -0.02007885 0.05134601
-0.03384388 -0.01760598 0.05188097
-0.03512842 -0.01509538 0.05238787
-0.03635457 -0.01255057 0.05286808
-0.03752435 -0.009974752 0.05332295
-0.03863981 -0.007370855 0.05375374
-0.03970301 -0.004741539 0.05416168
-0.04071599 -0.002089225 0.05454796
-0.04168079 0.000583887 0.0549137
-0.04259938 0.003275799 0.05525998
-0.04347373 0.005984699 0.05558782
-0.04430575 0.008708945 0.05589821
-0.0450973 0.01144705 0.05619206
-0.04585018 0.01419767 0.05647027
-0.04656614 0.01695957 0.05673366
-0.04724686 0.01973167 0.05698304
-0.04789399 0.02251297 0.05721916
-0.04850908 0.02530255 0.05744272
-0.04909365 0.02809962 0.05765442
-0.04964913 0.03090343 0.05785487
-0.05017693 0.03371333 0.0580447
-0.05067838 0.0365287 0.05822447
-0.05115474 0.03934902 0.05839472
-0.05160723 0.0421738 0.05855597
-0.05203703 0.04500259 0.05870869
-0.05244523 0.047835 0.05885336
-0.05283291 0.05067068 0.05899039
-0.05320107 0.05350929 0.05912021
-0.05355068 0.05635055 0.05924318
-0.05388266 0.0591942 0.05935969
-0.05419789 0.06203999 0.05947008
-0.0544972 0.06488773 0.05957467
-0.05478138 0.06773721 0.05967377
-0.05505119 0.07058826 0.05976767
-0.05530736 0.07344073 0.05985666
-0.05555055 0.07629447 0.05994099
-0.05578144 0.07914937 0.0600209
-0.05600063 0.0820053 0.06009664
-0.05620871 0.08486216 0.06016841
-0.05640624 0.08771986 0.06023644
-0.05659376 0.09057832 0.06030092
-0.05677177 0.09343746 0.06036204
-0.05694074 0.09629722 0.06041996
-0.05710114 0.09915753 0.06047487
-0.0572534 0.1020183 0.06052692
-0.05739793 0.1048796 0.06057625
-0.05753512 0.1077413 0.06062302
-0.05766533 0.1106033 0.06066735
-0.05778894 0.1134656 0.06070937
-0.05790626 0.1163283 0.06074921
-0.05801762 0.1191912 0.06078697
-0.05812331 0.1220544 0.06082277
-0.05822364 0.1249177 0.0608567
-0.05831886 0.1277813 0.06088887
-0.05840923 0.130645 0.06091937
-0.05849501 0.1335089 0.06094827
-0.05857641 0.136373 0.06097567
-0.05865368 0.1392371 0.06100165
-0.05872701 0.1421014 0.06102627
-0.0587966 0.1449658 0.06104961
-0.05886264 0.1478303 0.06107173
-0.05892532 0.1506949 0.0610927
-0.0589848 0.1535595 0.06111257
-0.05904125 0.1564242 0.06113141
-0.05909481 0.159289 0.06114926
-0.05914563 0.1621538 0.06116618
-0.05919386 0.1650187 0.06118222
-0.05923962 0.1678836 0.06119741
-0.05928303 0.1707486 0.06121181
-0.05932422 0.1736136 0.06122545
-0.0593633 0.1764786 0.06123838
-0.05940037 0.1793437 0.06125062
-0.05943553 0.1822088 0.06126223
-0.05946889 0.1850739 0.06127321
-0.05950052 0.187939 0.06128362
-0.05953052 0.1908042 0.06129348
-0.05955897 0.1936694 0.06130281
-0.05958594 0.1965345 0.06131165
-0.05961151 0.1993998 0.06132002
-0.05963575 0.202265 0.06132794
-0.05965872 0.2051302 0.06133543
-0.05968049 0.2079954 0.06134253
-0.05970111 0.2108607 0.06134924
-0.05972065 0.2137259 0.06135558
-0.05973915 0.2165912 0.06136158
-0.05975666 0.2194565 0.06136726
-0.05977323 0.2223217 0.06137262
-0.05978892 0.225187 0.06137768
-0.05980375 0.2280523 0.06138247
-0.05981777 0.2309176 0.06138698
-0.05983102 0.2337829 0.06139124
-0.05984354 0.2366482 0.06139526
-0.05985535 0.2395135 0.06139905
-0.05986649 0.2423788 0.06140262
-0.059877 0.2452441 0.06140597
-0.05988689 0.2481094 0.06140913
-0.0598962 0.2509747 0.0614121
-0.05990494 0.2538401 0.06141489
-0.05991316 0.2567054 0.0614175
-0.05992086 0.2595707 0.06141994
-0.05992807 0.262436 0.06142223
-0.0599348 0.2653013 0.06142436
-0.05994108 0.2681667 0.06142635
-0.05994693 0.271032 0.06142819
-0.05995235 0.2738973 0.0614299
-0.05995737 0.2767626 0.06143149
-0.05996199 0.279628 0.06143294
-0.05996623 0.2824933 0.06143428
-0.0599701 0.2853586 0.06143549
-0.05997362 0.2882239 0.0614366
-0.05997678 0.2910893 0.06143759
-0.05997961 0.2939546 0.06143848
-0.0599821 0.2968199 0.06143926
-0.05998427 0.2996852 0.06143993
-0.05998611 0.3025506 0.06144051
-0.05998764 0.3054159 0.06144099
-0.05998886 0.3082812 0.06144137
-0.05998978 0.3111466 0.06144166
-0.05999038 0.3140119 0.06144185
-0.05999068 0.3168772 0.06144194
-0.05999068 0.3197426 0.06144194
-0.05999038 0.3226079 0.06144185
-0.05998978 0.3254732 0.06144166
-0.05998886 0.3283385 0.06144137
-0.05998764 0.3312039 0.06144099
-0.05998611 0.3340692 0.06144051
-0.05998427 0.3369345 0.06143993
-0.0599821 0.3397999 0.06143926
-0.05997961 0.3426652 0.06143848
-0.05997678 0.3455305 0.06143759
-0.05997362 0.3483958 0.0614366
-0.0599701 0.3512612 0.06143549
-0.05996623 0.3541265 0.06143428
-0.05996199 0.3569918 0.06143294
-0.05995737 0.3598571 0.06143149
-0.05995235 0.3627225 0.0614299
-0.05994693 0.3655878 0.06142819
-0.05994108 0.3684531 0.06142635
-0.0599348 0.3713184 0.06142436
-0.05992807 0.3741838 0.06142223
-0.05992086 0.3770491 0.06141994
-0.05991316 0.3799144 0.0614175
-0.05990494 0.3827797 0.06141489
-0.05989619 0.385645 0.0614121
-0.05988689 0.3885103 0.06140913
-0.05987699 0.3913757 0.06140597
-0.05986649 0.394241 0.06140262
-0.05985535 0.3971063 0.06139905
-0.05984354 0.3999716 0.06139526
-0.05983102 0.4028369 0.06139124
-0.05981777 0.4057022 0.06138698
-0.05980375 0.4085675 0.06138247
-0.05978892 0.4114327 0.06137768
-0.05977323 0.414298 0.06137262
-0.05975666 0.4171633 0.06136726
-0.05973914 0.4200286 0.06136158
-0.05972065 0.4228938 0.06135558
-0.05970111 0.4257591 0.06134924
-0.05968049 0.4286243 0.06134253
-0.05965872 0.4314896 0.06133543
-0.05963575 0.4343548 0.06132794
-0.05961151 0.43722 0.06132002
-0.05958594 0.4400852 0.06131165
-0.05955897 0.4429504 0.06130281
-0.05953052 0.4458156 0.06129348
-0.05950052 0.4486807 0.06128362
-0.05946889 0.4515459 0.06127321
-0.05943553 0.454411 0.06126222
-0.05940037 0.4572761 0.06125062
-0.0593633 0.4601411 0.06123838
-0.05932422 0.4630062 0.06122545
-0.05928303 0.4658712 0.06121181
-0.05923962 0.4687361 0.06119741
-0.05919386 0.4716011 0.06118222
-0.05914563 0.4744659 0.06116618
-0.05909481 0.4773308 0.06114926
-0.05904124 0.4801955 0.06113141
-0.0589848 0.4830603 0.06111257
-0.05892532 0.4859249 0.0610927
-0.05886264 0.4887895 0.06107173
-0.0587966 0.491654 0.06104961
-0.05872701 0.4945183 0.06102627
-0.05865368 0.4973826 0.06100165
-0.05857641 0.5002468 0.06097567
-0.058495 0.5031108 0.06094827
-0.05840923 0.5059747 0.06091937
-0.05831885 0.5088385 0.06088887
-0.05822363 0.511702 0.0608567
-0.05812331 0.5145654 0.06082277
-0.05801762 0.5174286 0.06078697
-0.05790626 0.5202915 0.06074921
-0.05778894 0.5231541 0.06070937
-0.05766533 0.5260165 0.06066735
-0.05753511 0.5288785 0.06062302
-0.05739793 0.5317402 0.06057625
-0.0572534 0.5346014 0.06052692
-0.05710114 0.5374622 0.06047487
-0.05694074 0.5403226 0.06041996
-0.05677177 0.5431823 0.06036204
-0.05659376 0.5460415 0.06030092
-0.05640624 0.5488999 0.06023644
-0.05620871 0.5517576 0.06016841
-0.05600063 0.5546145 0.06009664
-0.05578144 0.5574704 0.0600209
-0.05555055 0.5603253 0.05994099
-0.05530735 0.563179 0.05985666
-0.05505119 0.5660315 0.05976767
-0.05478138 0.5688826 0.05967377
-0.05449719 0.571732 0.05957467
-0.05419789 0.5745798 0.05947008
-0.05388266 0.5774256 0.05935969
-0.05355068 0.5802692 0.05924318
-0.05320107 0.5831105 0.05912021
-0.05283291 0.5859491 0.05899039
-0.05244523 0.5887848 0.05885336
-0.05203703 0.5916172 0.05870869
-0.05160723 0.594446 0.05855597
-0.05115474 0.5972707 0.05839472
-0.05067838 0.6000911 0.05822447
-0.05017693 0.6029064 0.0580447
-0.04964913 0.6057163 0.05785487
-0.04909364 0.6085202 0.05765442
-0.04850908 0.6113172 0.05744272
-0.04789399 0.6141068 0.05721916
-0.04724686 0.6168881 0.05698304
-0.04656613 0.6196602 0.05673366
-0.04585018 0.6224221 0.05647027
-0.0450973 0.6251727 0.05619206
-0.04430575 0.6279108 0.05589821
-0.04347373 0.6306351 0.05558782
-0.04259938 0.633344 0.05525998
-0.04168078 0.6360359 0.0549137
-0.04071599 0.638709 0.05454796
-0.03970301 0.6413613 0.05416168
-0.03863981 0.6439906 0.05375374
-0.03752435 0.6465945 0.05332295
-0.03635457 0.6491703 0.05286809
-0.03512842 0.6517151 0.05238787
-0.03384388 0.6542257 0.05188097
-0.03249895 0.6566986 0.05134601
-0.03109173 0.6591299 0.05078157
-0.02962041 0.6615155 0.0501862
-0.02808328 0.6638507 0.04955842
-0.02647885 0.6661306 0.0488967
-0.0248058 0.6683499 0.04819954
-0.0230631 0.6705026 0.0474654
-0.02125004 0.6725825 0.04669279
-0.01936629 0.6745828 0.04588024
-0.01741198 0.6764963 0.04502632
-0.01538778 0.6783154 0.04412972
-0.01329498 0.6800317 0.04318922
-0.01113559 0.6816367 0.04220375
-0.008912439 0.6831213 0.04117243
-0.006629278 0.6844761 0.04009461
-0.004290882 0.6856915 0.03896992
-0.001903164 0.6867574 0.03779832
0.0005267214 0.687664 0.03658017
0.002990279 0.6884013 0.03531626
0.005477591 0.6889594 0.03400789
0.007977243 0.6893293 0.03265694
0.01047629 0.6895021 0.03126588
0.01296022 0.6894701 0.02983789
0.01541302 0.6892268 0.02837683
0.01781723 0.6887672 0.02688734
0.02015406 0.6880878 0.02537478
0.02240359 0.6871876 0.0238453
0.02454503 0.6860677 0.02230573
0.02655703 0.6847321 0.02076361
0.02841806 0.6831876 0.01922701
0.03010682 0.681444 0.0177045
0.03160276 0.6795143 0.01620495
0.03288654 0.6774147 0.01473738
0.03394058 0.6751644 0.01331078
0.03474954 0.6727854 0.01193388
0.03530076 0.6703021 0.01061494
0.03558469 0.6677412 0.009361545
0.03559517 0.6651306 0.008180427
0.03532966 0.6624995 0.007077262
0.03478928 0.6598773 0.006056541
0.03397884 0.6572929 0.005121473
0.0329066 0.6547745 0.004273919
0.03158408 0.6523488 0.003514388
0.03002564 0.6500403 0.002842066
0.02824808 0.647871 0.00225489
0.02627012 0.6458604 0.001749666
0.02411189 0.6440248 0.001322201
0.02179444 0.6423775 0.0009674648
0.01933923 0.6409286 0.0006797597
0.01676767 0.6396853 0.000452894
0.01410071 0.638652 0.0002803497
0.01135854 0.6378305 0.0001554403
0.008560262 0.63722 7.145394e-05
0.00572372 0.6368179 2.177716e-05
0.00286533 0.6366198 0
0 0.6366198 0

LINES 349 1047
2 0 1
2 1 2
2 2 3
2 3 4
2 4 5
2 5 6
2 6 7
2 7 8
2 8 9
2 9 10
2 10 11
2 11 12
2 12 13
2 13 14
2 14 15
2 15 16
2 16 17
2 17 18
2 18 19
2 19 20
2 20 21
2 21 22
2 22 23
2 23 24
2 24 25
2 25 26
2 26 27
2 27 28
2 28 29
2 29 30
2 30 31
2 31 32
2 32 33
2 33 34
2 34 35
2 35 36
2 36 37
2 37 38
2 38 39
2 39 40
2 40 41
2 41 42
2 42 43
2 43 44
2 44 45
2 45 46
2 46 47
2 47 48
2 48 49
2 49 50
2 50 51
2 51 52
2 52 53
2 53 54
2 54 55
2 55 56
2 56 57
2 57 58
2 58 59
2 59 60
2 60 61
2 61 62
2 62 63
2 63 64
2 64 65
2 65 66
2 66 67
2 67 68
2 68 69
2 69 70
2 70 71
2 71 72
2 72 73
2 73 74
2 74 75
2 75 76
2 76 77
2 77 78
2 78 79
2 79 80
2 80 81
2 81 82
2 82 83
2 83 84
2 84 85
2 85 86
2 86 87
2 87 88
2 88 89
2 89 90
2 90 91
2 91 92
2 92 93
2 93 94
2 94 95
2 95 96
2 96 97
2 97 98
2 98 99
2 99 100
2 100 101
2 101 102
2 102 103
2 103 104
2 104 105
2 105 106
2 106 107
2 107 108
2 108 109
2 109 110
2 110 111
2 111 112
2 112 113
2 113 114
2 114 115
2 115 116
2 116 117
2 117 118
2 118 119
2 119 120
2 120 121
2 121 122
2 122 123
2 123 124
2 124 125
2 125 126
2 126 127
2 127 128
2 128 129
2 129 130
2 130 131
2 131 132
2 132 133
2 133 134
2 134 135
2 135 136
2 136 137
2 137 138
2 138 139
2 139 140
2 140 141
2 141 142
2 142 143
2 143 144
2 144 145
2 145 146
2 146 147
2 147 148
2 148 149
2 149 150
2 150 151
2 151 152
2 152 153
2 153 154
2 154 155
2 155 156
2 156 157
2 157 158
2 158 159
2 159 160
2 160 161
2 161 162
2 162 163
2 163 164
2 164 165
2 165 166
2 166 167
2 167 168
2 168 169
2 169 170
2 170 171
2 171 172
2 172 173
2 173 174
2 174 175
2 175 176
2 176 177
2 177 178
2 178 179
2 179 180
2 180 181
2 181 182
2 182 183
2 183 184
2 184 185
2 185 186
2 186 187
2 187 188
2 188 189
2 189 190
2 190 191
2 191 192
2 192 193
2 193 194
2 194 195
2 195 196
2 196 197
2 197 198
2 198 199
2 199 200
2 200 201
2 201 202
2 202 203
2 203 204
2 204 205
2 205 206
2 206 207
2 207 208
2 208 209
2 209 210
2 210 211
2 211 212
2 212 213
2 213 214
2 214 215
2 215 216
2 216 217
2 217 218
2 218 219
2 219 220
2 220 221
2 221 222
2 222 223
2 223 224
2 224 225
2 225 226
2 226 227
2 227 228
2 228 229
2 229 230
2 230 231
2 231 232
2 232 233
2 233 234
2 234 235
2 235 236
2 236 237
2 237 238
2 238 239
2 239 240
2 240 241
2 241 242
2 242 243
2 243 244
2 244 245
2 245 246
2 246 247
2 247 248
2 248 249
2 249 250
2 250 251
2 251 252
2 252 253
2 253 254
2 254 255
2 255 256
2 256 257
2 257 258
2 258 259
2 259 260
2 260 261
2 261 262
2 262 263
2 263 264
2 264 265
2 265 266
2 266 267
2 267 268
2 268 269
2 269 270
2 270 271
2 271 272
2 272 273
2 273 274
2 274 275
2 275 276
2 276 277
2 277 278
2 278 279
2 279 280
2 280 281
2 281 282
2 282 283
2 283 284
2 284 285
2 285 286
2 286 287
2 287 288
2 288 289
2 289 290
2 290 291
2 291 292
2 292 293
2 293 294
2 294 295
2 295 296
2 296 297
2 297 298
2 298 299
2 299 300
2 300 301
2 301 302
2 302 303
2 303 304
2 304 305
2 305 306
2 306 307
2 307 308
2 308 309
2 309 310
2 310 311
2 311 312
2 312 313
2 313 314
2 314 315
2 315 316
2 316 317
2 317 318
2 318 319
2 319 320
2 320 321
2 321 322
2 322 323
2 323 324
2 324 325
2 325 326
2 326 327
2 327 328
2 328 329
2 329 330
2 330 331
2 331 332
2 332 333
2 333 334
2 334 335
2 335 336
2 336 337
2 337 338
2 338 339
2 339 340
2 340 341
2 341 342
2 342 343
2 343 344
2 344 345
2 345 346
2 346 347
2 347 348
2 348 349


POINT_DATA 350
SCALARS a FLOAT 1
LOOKUP_TABLE default
0.0005894628
0.0005894628
0.0005894628
0.0005894628
0.0005894628
0.0005894628
0.0005894628
0.0005894628
0.0005894628
0.0005894628
0.0005894628
0.0005894628
0.0005894628
0.0005894628
0.0005894628
0.0005894628
0.0005894628
0.0005894628
0.0005894628
0.0005894628
0.0005894628
0.0005894628
0.0005894628
0.0005894628
0.0005894628
0.0005894628
0.0005894628
0.0005894628
0.0005894628
0.0005894628
0.0005894628
0.0005894628
0.0005894628
0.0005894628
0.0005894628
0.0005894628
0.0005894628
0.0005894628
0.0005894628
0.0005894628
0.0005894628
0.0005894628
0.0005894628
0.0005894628
0.0005894628
0.0005894628
0.0005894628
0.0005894628
0.0005894628
0.0005894628
0.0005894628
0.0005894628
0.0005894628
0.0005894628
0.0005894628
0.0005894628
0.0005894628
0.0005894628
0.0005894628
0.0005894628
0.0005894628
0.0005894628
0.0005894628
0.0005894628
0.0005894628
0.0005894628
0.0005894628
0.0005894628
0.0005894628
0.0005894628
0.0005894628
0.0005894628
0.0005894628
0.0005894628
0.0005894628
0.0005894628
0.0005894628
0.0005894628
0.0005894628
0.0005894628
0.0005894628
0.0005894628
0.0005894628
0.0005894628
0.0005894628
0.0005894628
0.0005894628
0.0005894628
0.0005894628
0.0005894628
0.0005894628
0.0005894628
0.0005894628
0.0005894628
0.0005894628
0.0005894628
0.0005894628
0.0005894628
0.0005894628
0.0005894628
0.0005894628
0.0005894628
0.0005894628
0.0005894628
0.0005894628
0.0005894628
0.0005894628
0.0005894628
0.0005894628
0.0005894628
0.0005894628
0.0005894628
0.0005894628
0.0005894628
0.0005894628
0.0005894628
0.0005894628
0.0005894628
0.0005894628
0.0005894628
0.0005894628
0.0005894628
0.0005894628
0.0005894628
0.0005894628
0.0005894628
0.0005894628
0.0005894628
0.0005894628
0.0005894628
0.0005894628
0.0005894628
0.0005894628
0.0005894628
0.0005894628
0.0005894628
0.0005894628
0.0005894628
0.0005894628
0.0005894628
0.0005894628
0.0005894628
0.0005894628
0.0005894628
0.0005894628
0.0005894628
0.0005894628
0.0005894628
0.0005894628
0.0005894628
0.0005894628
0.0005894628
0.0005894628
0.0005894628
0.0005894628
0.0005894628
0.0005894628
0.0005894628
0.0005894628
0.0005894628
0.0005894628
0.0005894628
0.0005894628
0.0005894628
0.0005894628
0.0005894628
0.0005894628
0.0005894628
0.0005894628
0.0005894628
0.0005894628
0.0005894628
0.0005894628
0.0005894628
0.0005894628
0.0005894628
0.0005894628
0.0005894628
0.0005894628
0.0005894628
0.0005894628
0.0005894628
0.0005894628
0.0005894628
0.0005894628
0.0005894628
0.0005894628
0.0005894628
0.0005894628
0.0005894628
0.0005894628
0.0005894628
0.0005894628
0.0005894628
0.0005894628
0.0005894628
0.0005894628
0.0005894628
0.0005894628
0.0005894628
0.0005894628
0.0005894628
0.0005894628
0.0005894628
0.0005894628
0.0005894628
0.0005894628
0.0005894628
0.0005894628
0.0005894628
0.0005894628
0.0005894628
0.0005894628
0.0005894628
0.0005894628
0.0005894628
0.0005894628
0.0005894628
0.0005894628
0.0005894628
0.0005894628
0.0005894628
0.0005894628
0.0005894628
0.0005894628
0.0005894628
0.0005894628
0.0005894628
0.0005894628
0.0005894628
0.0005894628
0.0005894628
0.0005894628
0.0005894628
0.0005894628
0.0005894628
0.0005894628
0.0005894628
0.0005894628
0.0005894628
0.0005894628
0.0005894628
0.0005894628
0.0005894628
0.0005894628
0.0005894628
0.0005894628
0.0005894628
0.0005894628
0.0005894628
0.0005894628
0.0005894628
0.0005894628
0.0005894628
0.0005894628
0.0005894628
0.0005894628
0.0005894628
0.0005894628
0.0005894628
0.0005894628
0.0005894628
0.0005894628
0.0005894628
0.0005894628
0.0005894628
0.0005894628
0.0005894628
0.0005894628
0.0005894628
0.0005894628
0.0005894628
0.0005894628
0.0005894628
0.0005894628
0.0005894628
0.0005894628
0.0005894628
0.0005894628
0.0005894628
0.0005894628
0.0005894628
0.0005894628
0.0005894628
0.0005894628
0.0005894628
0.0005894628
0.0005894628
0.0005894628
0.0005894628
0.0005894628
0.0005894628
0.0005894628
0.0005894628
0.0005894628
0.0005894628
0.0005894628
0.0005894628
0.0005894628
0.0005894628
0.0005894628
0.0005894628
0.0005894628
0.0005894628
0.0005894628
0.0005894628
0.0005894628
0.0005894628
0.0005894628
0.0005894628
0.0005894628
0.0005894628
0.0005894628
0.0005894628
0.0005894628
0.0005894628
0.0005894628
0.0005894628
0.0005894628
0.0005894628
0.0005894628
0.0005894628
0.0005894628
0.0005894628
0.0005894628
0.0005894628
0.0005894628
0.0005894628
0.0005894628
0.0005894628
0.0005894628
0.0005894628
0.0005894628
0.0005894628
0.0005894628
0.0005894628
0.0005894628
0.0005894628
0.0005894628
0.0005894628
0.0005894628
0.0005894628
0.0005894628
0.0005894628
0.0005894628
0.0005894628
0.0005894628
0.0005894628
0.0005894628
0.0005894628


SCALARS b FLOAT 1
LOOKUP_TABLE default
0.04420971
0.04420971
0.04420971
0.04420971
0.04420971
0.04420971
0.04420971
0.04420971
0.04420971
0.04420971
0.04420971
0.04420971
0.04420971
0.04420971
0.04420971
0.04420971
0.04420971
0.04420971
0.04420971
0.04420971
0.04420971
0.04420971
0.04420971
0.04420971
0.04420971
0.04420971
0.04420971
0.04420971
0.04420971
0.04420971
0.04420971
0.04420971
0.04420971
0.04420971
0.04420971
0.04420971
0.04420971
0.04420971
0.04420971
0.04420971
0.04420971
0.04420971
0.04420971
0.04420971
0.04420971
0.04420971
0.04420971
0.04420971
0.04420971
0.04420971
0.04420971
0.04420971
0.04420971
0.04420971
0.04420971
0.04420971
0.04420971
0.04420971
0.04420971
0.04420971
0.04420971
0.04420971
0.04420971
0.04420971
0.04420971
0.04420971
0.04420971
0.04420971
0.04420971
0.04420971
0.04420971
0.04420971
0.04420971
0.04420971
0.04420971
0.04420971
0.04420971
0.04420971
0.04420971
0.04420971
0.04420971
0.04420971
0.04420971
0.04420971
0.04420971
0.04420971
0.04420971
0.04420971
0.04420971
0.04420971
0.04420971
0.04420971
0.04420971
0.04420971
0.04420971
0.04420971
0.04420971
0.04420971
0.04420971
0.04420971
0.04420971
0.04420971
0.04420971
0.04420971
0.04420971
0.04420971
0.04420971
0.04420971
0.04420971
0.04420971
0.04420971
0.04420971
0.04420971
0.04420971
0.04420971
0.04420971
0.04420971
0.04420971
0.04420971
0.04420971
0.04420971
0.04420971
0.04420971
0.04420971
0.04420971
0.04420971
0.04420971
0.04420971
0.04420971
0.04420971
0.04420971
0.04420971
0.04420971
0.04420971
0.04420971
0.04420971
0.04420971
0.04420971
0.04420971
0.04420971
0.04420971
0.04420971
0.04420971
0.04420971
0.04420971
0.04420971
0.04420971
0.04420971
0.04420971
0.04420971
0.04420971
0.04420971
0.04420971
0.04420971
0.04420971
0.04420971
0.04420971
0.04420971
0.04420971
0.04420971
0.04420971
0.04420971
0.04420971
0.04420971
0.04420971
0.04420971
0.04420971
0.04420971
0.04420971
0.04420971
0.04420971
0.04420971
0.04420971
0.04420971
0.04420971
0.04420971
0.04420971
0.04420971
0.04420971
0.04420971
0.04420971
0.04420971
0.04420971
0.04420971
0.04420971
0.04420971
0.04420971
0.04420971
0.04420971
0.04420971
0.04420971
0.04420971
0.04420971
0.04420971
0.04420971
0.04420971
0.04420971
0.04420971
0.04420971
0.04420971
0.04420971
0.04420971
0.04420971
0.04420971
0.04420971
0.04420971
0.04420971
0.04420971
0.04420971
0.04420971
0.04420971
0.04420971
0.04420971
0.04420971
0.04420971
0.04420971
0.04420971
0.04420971
0.04420971
0.04420971
0.04420971
0.04420971
0.04420971
0.04420971
0.04420971
0.04420971
0.04420971
0.04420971
0.04420971
0.04420971
0.04420971
0.04420971
0.04420971
0.04420971
0.04420971
0.04420971
0.04420971
0.04420971
0.04420971
0.04420971
0.04420971
0.04420971
0.04420971
0.04420971
0.04420971
0.04420971
0.04420971
0.04420971
0.04420971
0.04420971
0.04420971
0.04420971
0.04420971
0.04420971
0.04420971
0.04420971
0.04420971
0.04420971
0.04420971
0.04420971
0.04420971
0.04420971
0.04420971
0.04420971
0.04420971
0.04420971
0.04420971
0.04420971
0.04420971
0.04420971
0.04420971
0.04420971
0.04420971
0.04420971
0.04420971
0.04420971
0.04420971
0.04420971
0.04420971
0.04420971
0.04420971
0.04420971
0.04420971
0.04420971
0.04420971
0.04420971
0.04420971
0.04420971
0.04420971
0.04420971
0.04420971
0.04420971
0.04420971
0.04420971
0.04420971
0.04420971
0.04420971
0.04420971
0.04420971
0.04420971
0.04420971
0.04420971
0.04420971
0.04420971
0.04420971
0.04420971
0.04420971
0.04420971
0.04420971
0.04420971
0.04420971
0.04420971
0.04420971
0.04420971
0.04420971
0.04420971
0.04420971
0.04420971
0.04420971
0.04420971
0.04420971
0.04420971
0.04420971
0.04420971
0.04420971
0.04420971
0.04420971
0.04420971
0.04420971
0.04420971
0.04420971
0.04420971
0.04420971
0.04420971
0.04420971
0.04420971
0.04420971
0.04420971
0.04420971
0.04420971
0.04420971
0.04420971
0.04420971
0.04420971
0.04420971
0.04420971
0.04420971
0.04420971
0.04420971
0.04420971


VECTORS d1 FLOAT
0 -0.9953526 0.09629744
-0.06954863 -0.9900917 0.121989
-0.1413471 -0.9789335 0.147344
-0.2149038 -0.9613539 0.1720901
-0.2896226 -0.936873 0.1959277
-0.364802 -0.905076 0.2185334
-0.4396387 -0.8656363 0.2395655
-0.5132355 -0.8183388 0.2586715
-0.5846153 -0.7631031 0.2754969
-0.6527409 -0.7000039 0.289696
-0.7165401 -0.6292879 0.3009437
-0.7749358 -0.5513852 0.3089479
-0.8268811 -0.4669142 0.3134624
-0.8713957 -0.3766775 0.3142987
-0.9076031 -0.2816495 0.3113362
-0.9347666 -0.1829548 0.3045307
-0.9523203 -0.08183797 0.2939194
-0.959894 0.02037335 0.279622
-0.9573298 0.122311 0.2618388
-0.9446893 0.2226113 0.240845
-0.9222502 0.3199595 0.2169803
-0.8904936 0.4131324 0.1906376
-0.8500824 0.5010345 0.1622482
-0.8018318 0.5827275 0.1322663
-0.7466762 0.6574515 0.1011538
-0.6856319 0.724636 0.06936548
-0.6197601 0.7839027 0.03733581
-0.5501316 0.8350601 0.005467846
-0.4777951 0.8780901 -0.02587522
-0.4037497 0.9131308 -0.05637605
-0.3289232 0.940454 -0.08576658
-0.2541558 0.9604415 -0.113829
-0.1801901 0.9735609 -0.1403949
-0.1076655 0.9803418 -0.1653426
-0.03711724 0.9813536 -0.1885933
0.03102074 0.9771862 -0.2101066
0.0964101 0.9684329 -0.2298756
0.1588005 0.9556764 -0.2479213
0.2180209 0.939478 -0.2642877
0.2739695 0.9203689 -0.2790372
0.3266043 0.8988448 -0.2922459
0.3759337 0.8753617 -0.3039996
0.4220072 0.8503343 -0.3143906
0.4649074 0.8241354 -0.3235149
0.5047424 0.7970967 -0.3314694
0.5416395 0.7695101 -0.3383503
0.5757393 0.7416301 -0.3442514
0.6071913 0.7136764 -0.3492631
0.6361496 0.6858364 -0.3534715
0.6627697 0.6582685 -0.3569579
0.6872061 0.6311046 -0.3597981
0.7096102 0.6044534 -0.3620628
0.7301284 0.5784027 -0.3638171
0.7489015 0.5530219 -0.365121
0.7660635 0.5283649 -0.3660289
0.7817415 0.5044714 -0.3665908
0.7960548 0.4813696 -0.3668515
0.8091154 0.4590774 -0.3668517
0.8210278 0.4376042 -0.3666279
0.8318889 0.4169521 -0.3662127
0.8417888 0.3971175 -0.3656354
0.8508106 0.3780915 -0.364922
0.859031 0.3598614 -0.3640954
0.8665204 0.3424112 -0.3631762
0.8733436 0.3257222 -0.3621822
0.87956 0.3097739 -0.3611293
0.8852238 0.2945442 -0.3600314
0.8903847 0.28001 -0.3589004
0.8950881 0.2661473 -0.357747
0.8993753 0.252932 -0.3565802
0.9032841 0.2403396 -0.3554079
0.9068487 0.2283456 -0.3542367
0.9101005 0.2169259 -0.3530725
0.9130679 0.2060565 -0.3519202
0.9157766 0.195714 -0.3507837
0.9182503 0.1858755 -0.3496665
0.9205102 0.1765187 -0.3485714
0.9225758 0.167622 -0.3475008
0.9244646 0.1591643 -0.3464563
0.9261926 0.1511253 -0.3454395
0.9277743 0.1434857 -0.3444514
0.9292228 0.1362264 -0.3434928
0.9305502 0.1293295 -0.3425642
0.9317672 0.1227776 -0.3416658
0.9328837 0.116554 -0.3407978
0.9339086 0.1106429 -0.3399601
0.93485 0.105029 -0.3391525
0.9357152 0.0996977 -0.3383746
0.936511 0.09463514 -0.3376261
0.9372433 0.08982802 -0.3369063
0.9379178 0.08526368 -0.3362148
0.9385393 0.08093006 -0.3355509
0.9391124 0.07681564 -0.3349139
0.9396412 0.07290947 -0.3343032
0.9401295 0.06920112 -0.333718
0.9405807 0.06568066 -0.3331575
0.940998 0.06233865 -0.332621
0.941384 0.05916611 -0.3321077
0.9417414 0.05615448 -0.3316169
0.9420726 0.05329565 -0.3311477
0.9423796 0.0505819 -0.3306995
0.9426645 0.04800589 -0.3302714
0.9429289 0.04556064 -0.3298626
0.9431745 0.04323954 -0.3294726
0.9434028 0.04103628 -0.3291004
0.9436152 0.03894489 -0.3287455
0.9438129 0.03695969 -0.3284071
0.9439969 0.03507529 -0.3280846
0.9441685 0.03328656 -0.3277772
0.9443284 0.03158864 -0.3274844
0.9444776 0.02997691 -0.3272055
0.9446169 0.02844697 -0.32694
0.9447469 0.02699467 -0.3266872
0.9448685 0.02561605 -0.3264466
0.9449821 0.02430736 -0.3262176
0.9450885 0.02306502 -0.3259997
0.945188 0.02188564 -0.3257925
0.9452811 0.02076602 -0.3255953
0.9453684 0.01970311 -0.3254079
0.9454503 0.01869399 -0.3252297
0.945527 0.01773592 -0.3250603
0.9455989 0.01682629 -0.3248992
0.9456665 0.0159626 -0.3247462
0.9457299 0.01514252 -0.3246008
0.9457894 0.01436379 -0.3244626
0.9458454 0.01362429 -0.3243314
0.945898 0.01292201 -0.3242068
0.9459474 0.01225502 -0.3240884
0.9459939 0.01162151 -0.323976
0.9460376 0.01101974 -0.3238693
0.9460788 0.01044808 -0.3237681
0.9461175 0.009904951 -0.3236719
0.946154 0.009388884 -0.3235808
0.9461883 0.008898466 -0.3234942
0.9462206 0.008432358 -0.3234122
0.9462511 0.007989285 -0.3233344
0.9462797 0.007568039 -0.3232606
0.9463067 0.007167468 -0.3231907
0.9463322 0.006786479 -0.3231244
0.9463561 0.006424031 -0.3230617
0.9463787 0.006079133 -0.3230022
0.9463999 0.005750844 -0.322946
0.9464199 0.005438267 -0.3228927
0.9464388 0.005140549 -0.3228424
0.9464565 0.004856875 -0.3227947
0.9464732 0.004586471 -0.3227497
0.9464889 0.004328598 -0.3227072
0.9465037 0.004082551 -0.3226671
0.9465176 0.00384766 -0.3226293
0.9465306 0.003623281 -0.3225937
0.9465428 0.003408801 -0.3225601
0.9465543 0.003203636 -0.3225285
0.9465651 0.003007224 -0.3224989
0.9465751 0.002819029 -0.322471
0.9465845 0.002638536 -0.322445
0.9465933 0.002465253 -0.3224206
0.9466015 0.002298705 -0.3223978
0.9466091 0.002138439 -0.3223766
0.9466161 0.001984015 -0.3223569
0.9466226 0.001835013 -0.3223386
0.9466287 0.001691025 -0.3223218
0.9466342 0.001551657 -0.3223063
0.9466392 0.001416529 -0.3222921
0.9466438 0.001285272 -0.3222791
0.946648 0.001157526 -0.3222675
0.9466517 0.001032944 -0.322257
0.946655 0.0009111837 -0.3222477
0.9466578 0.0007919134 -0.3222395
0.9466603 0.000674807 -0.3222325
0.9466624 0.0005595444 -0.3222266
0.9466641 0.0004458109 -0.3222218
0.9466654 0.0003332955 -0.3222181
0.9466664 0.0002216908 -0.3222154
0.9466669 0.0001106919 -0.3222138
0.9466671 -4.496784e-09 -0.3222133
0.9466669 -0.0001107009 -0.3222138
0.9466664 -0.0002216998 -0.3222154
0.9466654 -0.0003333045 -0.3222181
0.9466641 -0.0004458199 -0.3222218
0.9466624 -0.0005595534 -0.3222266
0.9466603 -0.000674816 -0.3222325
0.9466578 -0.0007919224 -0.3222395
0.946655 -0.0009111927 -0.3222477
0.9466517 -0.001032953 -0.322257
0.946648 -0.001157535 -0.3222675
0.9466438 -0.001285281 -0.3222791
0.9466392 -0.001416538 -0.3222921
0.9466342 -0.001551666 -0.3223063
0.9466287 -0.001691034 -0.3223218
0.9466226 -0.001835022 -0.3223386
0.9466161 -0.001984024 -0.3223569
0.9466091 -0.002138448 -0.3223766
0.9466015 -0.002298714 -0.3223978
0.9465933 -0.002465262 -0.3224206
0.9465845 -0.002638545 -0.322445
0.9465751 -0.002819038 -0.322471
0.9465651 -0.003007233 -0.3224989
0.9465543 -0.003203645 -0.3225285
0.9465428 -0.00340881 -0.3225601
0.9465306 -0.00362329 -0.3225937
0.9465176 -0.003847668 -0.3226293
0.9465037 -0.00408256 -0.3226671
0.9464889 -0.004328606 -0.3227072
0.9464732 -0.004586479 -0.3227497