# vtk DataFile Version 2.0
Written badly by Kevin Korner
ASCII
DATASET POLYDATA
POINTS 350 FLOAT
0 0 0
0.00286533 0 0
0.005730533 2.605219e-05 6.375152e-06
0.008595361 7.815961e-05 1.904056e-05
0.01145956 0.0001563227 3.791112e-05
0.01432289 0.0002605395 6.290148e-05
0.01718509 0.0003908053 9.392612e-05
0.02004591 0.000547113 0.0001308993
0.02290511 0.0007294531 0.0001737352
0.02576244 0.0009378133 0.0002223477
0.02861765 0.001172179 0.0002766506
0.0314705 0.001432533 0.0003365575
0.03432074 0.001718857 0.000401982
0.03716812 0.002031127 0.0004728375
0.0400124 0.00236932 0.0005490372
0.04285334 0.002733408 0.0006304944
0.04569068 0.003123363 0.0007171222
0.0485242 0.003539153 0.0008088336
0.05135365 0.003980743 0.0009055416
0.05417878 0.004448097 0.001007159
0.05699935 0.004941177 0.001113599
0.05981514 0.005459941 0.001224775
0.06262589 0.006004345 0.001340598
0.06543137 0.006574345 0.001460982
0.06823134 0.00716989 0.001585841
0.07102557 0.007790932 0.001715086
0.07381382 0.008437418 0.001848631
0.07659586 0.009109291 0.001986388
0.07937145 0.009806496 0.002128271
0.08214035 0.01052897 0.002274192
0.08490235 0.01127666 0.002424065
0.0876572 0.01204949 0.002577803
0.09040468 0.0128474 0.002735319
0.09314456 0.01367032 0.002896526
0.0958766 0.01451818 0.003061338
0.09860059 0.01539091 0.003229669
0.1013163 0.01628843 0.003401433
0.1040235 0.01721067 0.003576542
0.106722 0.01815754 0.003754912
0.1094115 0.01912897 0.003936456
0.1120918 0.02012487 0.004121089
0.1147628 0.02114515 0.004308725
0.1174241 0.02218974 0.004499278
0.1200756 0.02325853 0.004692665
0.122717 0.02435144 0.0048888
0.1253482 0.02546837 0.005087598
0.1279689 0.02660923 0.005288975
0.1305789 0.02777392 0.005492847
0.1331779 0.02896234 0.005699129
0.1357659 0.03017439 0.005907738
0.1383425 0.03140996 0.006118591
0.1409076 0.03266896 0.006331604
0.143461 0.03395126 0.006546695
0.1460023 0.03525676 0.00676378
0.1485316 0.03658536 0.006982778
0.1510484 0.03793694 0.007203607
0.1535527 0.03931137 0.007426184
0.1560443 0.04070856 0.007650429
0.1585228 0.04212837 0.00787626
0.1609882 0.04357068 0.008103597
0.1634402 0.04503538 0.00833236
0.1658787 0.04652234 0.008562468
0.1683034 0.04803143 0.008793841
0.1707142 0.04956253 0.009026401
0.1731108 0.05111551 0.009260069
0.1754931 0.05269022 0.009494765
0.1778608 0.05428656 0.009730413
0.1802139 0.05590437 0.009966934
0.182552 0.05754352 0.01020425
0.1848751 0.05920387 0.01044229
0.1871829 0.06088529 0.01068097
0.1894753 0.06258763 0.01092021
0.191752 0.06431074 0.01115995
0.1940129 0.0660545 0.0114001
0.1962579 0.06781874 0.0116406
0.1984867 0.06960332 0.01188136
0.2006991 0.07140809 0.01212232
0.202895 0.0732329 0.01236339
0.2050742 0.0750776 0.01260452
0.2072366 0.07694203 0.01284562
0.209382 0.07882604 0.01308662
0.2115101 0.08072947 0.01332745
0.2136209 0.08265216 0.01356805
0.2157142 0.08459396 0.01380834
0.2177898 0.0865547 0.01404825
0.2198475 0.08853421 0.01428771
0.2218873 0.09053234 0.01452666
0.2239088 0.09254891 0.01476502
0.2259121 0.09458377 0.01500274
0.2278968 0.09663674 0.01523973
0.2298629 0.09870765 0.01547594
0.2318103 0.1007963 0.0157113
0.2337387 0.1029026 0.01594574
0.235648 0.1050263 0.01617921
0.2375381 0.1071673 0.01641162
0.2394088 0.1093253 0.01664294
0.24126 0.1115002 0.01687308
0.2430915 0.1136919 0.01710199
0.2449032 0.1159 0.0173296
0.2466949 0.1181246 0.01755586
0.2484666 0.1203653 0.0177807
0.250218 0.122622 0.01800407
0.2519491 0.1248945 0.01822591
0.2536597 0.1271826 0.01844615
0.2553497 0.1294861 0.01866474
0.2570189 0.1318049 0.01888162
0.2586673 0.1341387 0.01909674
0.2602947 0.1364874 0.01931004
0.2619009 0.1388508 0.01952147
0.2634859 0.1412286 0.01973097
0.2650495 0.1436207 0.01993848
0.2665916 0.1460269 0.02014396
0.2681121 0.148447 0.02034735
0.2696109 0.1508808 0.0205486
0.2710878 0.153328 0.02074767
0.2725428 0.1557886 0.02094449
0.2739757 0.1582622 0.02113902
0.2753865 0.1607488 0.02133121
0.276775 0.163248 0.02152101
0.2781411 0.1657598 0.02170838
0.2794847 0.1682838 0.02189327
0.2808057 0.1708199 0.02207564
0.282104 0.1733678 0.02225543
0.2833795 0.1759275 0.02243261
0.2846322 0.1784986 0.02260712
0.2858619 0.1810809 0.02277894
0.2870685 0.1836743 0.02294801
0.2882519 0.1862785 0.0231143
0.2894121 0.1888934 0.02327776
0.2905489 0.1915186 0.02343835
0.2916623 0.194154 0.02359604
0.2927522 0.1967995 0.02375079
0.2938185 0.1994547 0.02390255
0.2948612 0.2021194 0.0240513
0.2958801 0.2047935 0.024197
0.2968751 0.2074767 0.02433961
0.2978462 0.2101689 0.0244791
0.2987934 0.2128697 0.02461543
0.2997165 0.215579 0.02474858
0.3006155 0.2182965 0.02487851
0.3014903 0.2210221 0.02500519
0.3023408 0.2237555 0.02512858
0.3031671 0.2264965 0.02524867
0.3039689 0.2292449 0.02536542
0.3047463 0.2320004 0.02547881
0.3054992 0.2347628 0.0255888
0.3062276 0.237532 0.02569538
0.3069313 0.2403076 0.02579851
0.3076104 0.2430896 0.02589817
0.3082648 0.2458775 0.02599434
0.3088943 0.2486713 0.026087
0.3094991 0.2514706 0.02617613
0.3100791 0.2542754 0.0262617
0.3106341 0.2570852 0.02634369
0.3111642 0.2599 0.02642209
0.3116693 0.2627195 0.02649687
0.3121494 0.2655434 0.02656802
0.3126044 0.2683716 0.02663552
0.3130343 0.2712037 0.02669937
0.3134391 0.2740397 0.02675953
0.3138188 0.2768792 0.026816
0.3141733 0.279722 0.02686876
0.3145025 0.2825679 0.02691781
0.3148066 0.2854167 0.02696313
0.3150853 0.2882682 0.02700471
0.3153388 0.291122 0.02704254
0.3155671 0.293978 0.02707661
0.3157699 0.296836 0.02710692
0.3159475 0.2996957 0.02713345
0.3160997 0.3025569 0.02715621
0.3162266 0.3054194 0.02717518
0.3163281 0.3082828 0.02719036
0.3164042 0.3111471 0.02720175
0.316455 0.314012 0.02720934
0.3164804 0.3168772 0.02721314
0.3164804 0.3197426 0.02721314
0.316455 0.3226078 0.02720934
0.3164042 0.3254726 0.02720175
0.3163281 0.3283369 0.02719036
0.3162266 0.3312004 0.02717518
0.3160997 0.3340629 0.02715621
0.3159475 0.3369241 0.02713345
0.3157699 0.3397838 0.02710692
0.3155671 0.3426417 0.02707661
0.3153388 0.3454978 0.02704254
0.3150853 0.3483516 0.02700471
0.3148066 0.351203 0.02696313
0.3145025 0.3540518 0.02691781
0.3141733 0.3568978 0.02686876
0.3138188 0.3597406 0.026816
0.3134391 0.3625801 0.02675953
0.3130343 0.365416 0.02669937
0.3126044 0.3682482 0.02663552
0.3121494 0.3710764 0.02656802
0.3116693 0.3739003 0.02649687
0.3111642 0.3767198 0.02642209
0.3106341 0.3795346 0.02634369
0.3100791 0.3823444 0.0262617
0.3094991 0.3851491 0.02617613
0.3088943 0.3879485 0.026087
0.3082648 0.3907423 0.02599434
0.3076104 0.3935302 0.02589817
0.3069313 0.3963121 0.02579851
0.3062276 0.3990878 0.02569538
0.3054992 0.4018569 0.0255888
0.3047463 0.4046194 0.02547881
0.3039689 0.4073749 0.02536542
0.3031671 0.4101233 0.02524867
0.3023408 0.4128643 0.02512858
0.3014903 0.4155977 0.02500519
0.3006155 0.4183233 0.02487851
0.2997165 0.4210408 0.02474858
0.2987934 0.4237501 0.02461543
0.2978462 0.4264509 0.0244791
0.2968751 0.429143 0.02433961
0.2958801 0.4318263 0.024197
0.2948612 0.4345004 0.0240513
0.2938185 0.4371651 0.02390255
0.2927522 0.4398203 0.02375079
0.2916623 0.4424657 0.02359604
0.2905489 0.4451012 0.02343835
0.2894121 0.4477264 0.02327776
0.2882519 0.4503413 0.0231143
0.2870685 0.4529455 0.02294801
0.2858619 0.4555389 0.02277894
0.2846322 0.4581212 0.02260712
0.2833795 0.4606923 0.02243261
0.282104 0.4632519 0.02225543
0.2808057 0.4657999 0.02207564
0.2794847 0.468336 0.02189327
0.2781411 0.47086 0.02170838
0.276775 0.4733717 0.02152101
0.2753865 0.475871 0.02133121
0.2739757 0.4783575 0.02113902
0.2725428 0.4808312 0.02094449
0.2710878 0.4832917 0.02074767
0.2696109 0.485739 0.0205486
0.2681121 0.4881728 0.02034735
0.2665916 0.4905929 0.02014396
0.2650495 0.4929991 0.01993848
0.2634859 0.4953912 0.01973097
0.2619009 0.497769 0.01952147
0.2602947 0.5001324 0.01931004
0.2586673 0.5024811 0.01909674
0.2570189 0.5048149 0.01888162
0.2553497 0.5071337 0.01866474
0.2536597 0.5094372 0.01844615
0.2519491 0.5117253 0.01822591
0.250218 0.5139978 0.01800407
0.2484666 0.5162545 0.0177807
0.2466949 0.5184952 0.01755586
0.2449032 0.5207197 0.0173296
0.2430915 0.5229279 0.01710199
0.24126 0.5251195 0.01687308
0.2394088 0.5272945 0.01664294
0.2375381 0.5294525 0.01641162
0.235648 0.5315935 0.01617921
0.2337387 0.5337172 0.01594574
0.2318103 0.5358234 0.0157113
0.2298629 0.5379121 0.01547594
0.2278968 0.539983 0.01523973
0.2259121 0.542036 0.01500274
0.2239088 0.5440709 0.01476502
0.2218873 0.5460874 0.01452666
0.2198475 0.5480856 0.01428771
0.2177898 0.5500651 0.01404825
0.2157142 0.5520258 0.01380834
0.2136209 0.5539676 0.01356805
0.2115101 0.5558903 0.01332745
0.209382 0.5577937 0.01308662
0.2072366 0.5596777 0.01284562
0.2050742 0.5615422 0.01260452
0.202895 0.5633869 0.01236339
0.2006991 0.5652117 0.01212232
0.1984867 0.5670165 0.01188136
0.1962579 0.568801 0.0116406
0.1940129 0.5705653 0.0114001
0.191752 0.572309 0.01115995
0.1894753 0.5740321 0.01092021
0.1871829 0.5757345 0.01068097
0.1848751 0.5774159 0.01044229
0.182552 0.5790763 0.01020425
0.1802139 0.5807154 0.009966934
0.1778608 0.5823332 0.009730413
0.1754931 0.5839295 0.009494765
0.1731108 0.5855043 0.009260069
0.1707142 0.5870572 0.009026401
0.1683034 0.5885883 0.008793841
0.1658787 0.5900974 0.008562468
0.1634402 0.5915844 0.00833236
0.1609882 0.5930491 0.008103597
0.1585228 0.5944914 0.00787626
0.1560443 0.5959112 0.007650429
0.1535527 0.5973084 0.007426184
0.1510484 0.5986828 0.007203607
0.1485316 0.6000344 0.006982778
0.1460023 0.601363 0.00676378
0.143461 0.6026685 0.006546695
0.1409076 0.6039508 0.006331604
0.1383425 0.6052098 0.006118591
0.1357659 0.6064454 0.005907738
0.1331779 0.6076574 0.005699129
0.1305789 0.6088459 0.005492847
0.1279689 0.6100105 0.005288975
0.1253482 0.6111514 0.005087598
0.122717 0.6122683 0.0048888
0.1200756 0.6133612 0.004692665
0.1174241 0.61443 0.004499278
0.1147628 0.6154746 0.004308725
0.1120918 0.6164949 0.004121089
0.1094115 0.6174908 0.003936456
0.106722 0.6184622 0.003754912
0.1040235 0.6194091 0.003576542
0.1013163 0.6203313 0.003401433
0.09860059 0.6212289 0.003229669
0.0958766 0.6221016 0.003061338
0.09314456 0.6229495 0.002896526
0.09040468 0.6237724 0.002735319
0.0876572 0.6245703 0.002577803
0.08490235 0.6253431 0.002424065
0.08214035 0.6260908 0.002274192
0.07937145 0.6268133 0.002128271
0.07659586 0.6275105 0.001986388
0.07381382 0.6281824 0.001848631
0.07102557 0.6288288 0.001715086
0.06823134 0.6294499 0.001585841
0.06543137 0.6300454 0.001460982
0.06262589 0.6306154 0.001340598
0.05981514 0.6311598 0.001224775
0.05699935 0.6316786 0.001113599
0.05417878 0.6321717 0.001007159
0.05135365 0.632639 0.0009055416
0.0485242 0.6330806 0.0008088336
0.04569068 0.6334964 0.0007171222
0.04285334 0.6338864 0.0006304944
0.0400124 0.6342505 0.0005490372
0.03716812 0.6345886 0.0004728375
0.03432074 0.6349009 0.000401982
0.0314705 0.6351872 0.0003365575
0.02861765 0.6354476 0.0002766506
0.02576244 0.635682 0.0002223477
0.02290511 0.6358903 0.0001737352
0.02004591 0.6360727 0.0001308993
0.01718509 0.636229 9.392612e-05
0.01432289 0.6363592 6.290148e-05
0.01145956 0.6364634 3.791112e-05
0.008595361 0.6365416 1.904056e-05
0.005730533 0.6365937 6.375152e-06
0.00286533 0.6366198 0
0 0.6366198 0

LINES 349 1047
2 0 1
2 1 2
2 2 3
2 3 4
2 4 5
2 5 6
2 6 7
2 7 8
2 8 9
2 9 10
2 10 11
2 11 12
2 12 13
2 13 14
2 14 15
2 15 16
2 16 17
2 17 18
2 18 19
2 19 20
2 20 21
2 21 22
2 22 23
2 23 24
2 24 25
2 25 26
2 26 27
2 27 28
2 28 29
2 29 30
2 30 31
2 31 32
2 32 33
2 33 34
2 34 35
2 35 36
2 36 37
2 37 38
2 38 39
2 39 40
2 40 41
2 41 42
2 42 43
2 43 44
2 44 45
2 45 46
2 46 47
2 47 48
2 48 49
2 49 50
2 50 51
2 51 52
2 52 53
2 53 54
2 54 55
2 55 56
2 56 57
2 57 58
2 58 59
2 59 60
2 60 61
2 61 62
2 62 63
2 63 64
2 64 65
2 65 66
2 66 67
2 67 68
2 68 69
2 69 70
2 70 71
2 71 72
2 72 73
2 73 74
2 74 75
2 75 76
2 76 77
2 77 78
2 78 79
2 79 80
2 80 81
2 81 82
2 82 83
2 83 84
2 84 85
2 85 86
2 86 87
2 87 88
2 88 89
2 89 90
2 90 91
2 91 92
2 92 93
2 93 94
2 94 95
2 95 96
2 96 97
2 97 98
2 98 99
2 99 100
2 100 101
2 101 102
2 102 103
2 103 104
2 104 105
2 105 106
2 106 107
2 107 108
2 108 109
2 109 110
2 110 111
2 111 112
2 112 113
2 113 114
2 114 115
2 115 116
2 116 117
2 117 118
2 118 119
2 119 120
2 120 121
2 121 122
2 122 123
2 123 124
2 124 125
2 125 126
2 126 127
2 127 128
2 128 129
2 129 130
2 130 131
2 131 132
2 132 133
2 133 134
2 134 135
2 135 136
2 136 137
2 137 138
2 138 139
2 139 140
2 140 141
2 141 142
2 142 143
2 143 144
2 144 145
2 145 146
2 146 147
2 147 148
2 148 149
2 149 150
2 150 151
2 151 152
2 152 153
2 153 154
2 154 155
2 155 156
2 156 157
2 157 158
2 158 159
2 159 160
2 160 161
2 161 162
2 162 163
2 163 164
2 164 165
2 165 166
2 166 167
2 167 168
2 168 169
2 169 170
2 170 171
2 171 172
2 172 173
2 173 174
2 174 175
2 175 176
2 176 177
2 177 178
2 178 179
2 179 180
2 180 181
2 181 182
2 182 183
2 183 184
2 184 185
2 185 186
2 186 187
2 187 188
2 188 189
2 189 190
2 190 191
2 191 192
2 192 193
2 193 194
2 194 195
2 195 196
2 196 197
2 197 198
2 198 199
2 199 200
2 200 201
2 201 202
2 202 203
2 203 204
2 204 205
2 205 206
2 206 207
2 207 208
2 208 209
2 209 210
2 210 211
2 211 212
2 212 213
2 213 214
2 214 215
2 215 216
2 216 217
2 217 218
2 218 219
2 219 220
2 220 221
2 221 222
2 222 223
2 223 224
2 224 225
2 225 226
2 226 227
2 227 228
2 228 229
2 229 230
2 230 231
2 231 232
2 232 233
2 233 234
2 234 235
2 235 236
2 236 237
2 237 238
2 238 239
2 239 240
2 240 241
2 241 242
2 242 243
2 243 244
2 244 245
2 245 246
2 246 247
2 247 248
2 248 249
2 249 250
2 250 251
2 251 252
2 252 253
2 253 254
2 254 255
2 255 256
2 256 257
2 257 258
2 258 259
2 259 260
2 260 261
2 261 262
2 262 263
2 263 264
2 264 265
2 265 266
2 266 267
2 267 268
2 268 269
2 269 270
2 270 271
2 271 272
2 272 273
2 273 274
2 274 275
2 275 276
2 276 277
2 277 278
2 278 279
2 279 280
2 280 281
2 281 282
2 282 283
2 283 284
2 284 285
2 285 286
2 286 287
2 287 288
2 288 289
2 289 290
2 290 291
2 291 292
2 292 293
2 293 294
2 294 295
2 295 296
2 296 297
2 297 298
2 298 299
2 299 300
2 300 301
2 301 302
2 302 303
2 303 304
2 304 305
2 305 306
2 306 307
2 307 308
2 308 309
2 309 310
2 310 311
2 311 312
2 312 313
2 313 314
2 314 315
2 315 316
2 316 317
2 317 318
2 318 319
2 319 320
2 320 321
2 321 322
2 322 323
2 323 324
2 324 325
2 325 326
2 326 327
2 327 328
2 328 329
2 329 330
2 330 331
2 331 332
2 332 333
2 333 334
2 334 335
2 335 336
2 336 337
2 337 338
2 338 339
2 339 340
2 340 341
2 341 342
2 342 343
2 343 344
2 344 345
2 345 346
2 346 347
2 347 348
2 348 349


POINT_DATA 350
SCALARS a FLOAT 1
LOOKUP_TABLE default
0.0005894628
0.0005894628
0.0005894628
0.0005894628
0.0005894628
0.0005894628
0.0005894628
0.0005894628
0.0005894628
0.0005894628
0.0005894628
0.0005894628
0.0005894628
0.0005894628
0.0005894628
0.0005894628
0.0005894628
0.0005894628
0.0005894628
0.0005894628
0.0005894628
0.0005894628
0.0005894628
0.0005894628
0.0005894628
0.0005894628
0.0005894628
0.0005894628
0.0005894628
0.0005894628
0.0005894628
0.0005894628
0.0005894628
0.0005894628
0.0005894628
0.0005894628
0.0005894628
0.0005894628
0.0005894628
0.0005894628
0.0005894628
0.0005894628
0.0005894628
0.0005894628
0.0005894628
0.0005894628
0.0005894628
0.0005894628
0.0005894628
0.0005894628
0.0005894628
0.0005894628
0.0005894628
0.0005894628
0.0005894628
0.0005894628
0.0005894628
0.0005894628
0.0005894628
0.0005894628
0.0005894628
0.0005894628
0.0005894628
0.0005894628
0.0005894628
0.0005894628
0.0005894628
0.0005894628
0.0005894628
0.0005894628
0.0005894628
0.0005894628
0.0005894628
0.0005894628
0.0005894628
0.0005894628
0.0005894628
0.0005894628
0.0005894628
0.0005894628
0.0005894628
0.0005894628
0.0005894628
0.0005894628
0.0005894628
0.0005894628
0.0005894628
0.0005894628
0.0005894628
0.0005894628
0.0005894628
0.0005894628
0.0005894628
0.0005894628
0.0005894628
0.0005894628
0.0005894628
0.0005894628
0.0005894628
0.0005894628
0.0005894628
0.0005894628
0.0005894628
0.0005894628
0.0005894628
0.0005894628
0.0005894628
0.0005894628
0.0005894628
0.0005894628
0.0005894628
0.0005894628
0.0005894628
0.0005894628
0.0005894628
0.0005894628
0.0005894628
0.0005894628
0.0005894628
0.0005894628
0.0005894628
0.0005894628
0.0005894628
0.0005894628
0.0005894628
0.0005894628
0.0005894628
0.0005894628
0.0005894628
0.0005894628
0.0005894628
0.0005894628
0.0005894628
0.0005894628
0.0005894628
0.0005894628
0.0005894628
0.0005894628
0.0005894628
0.0005894628
0.0005894628
0.0005894628
0.0005894628
0.0005894628
0.0005894628
0.0005894628
0.0005894628
0.0005894628
0.0005894628
0.0005894628
0.0005894628
0.0005894628
0.0005894628
0.0005894628
0.0005894628
0.0005894628
0.0005894628
0.0005894628
0.0005894628
0.0005894628
0.0005894628
0.0005894628
0.0005894628
0.0005894628
0.0005894628
0.0005894628
0.0005894628
0.0005894628
0.0005894628
0.0005894628
0.0005894628
0.0005894628
0.0005894628
0.0005894628
0.0005894628
0.0005894628
0.0005894628
0.0005894628
0.0005894628
0.0005894628
0.0005894628
0.0005894628
0.0005894628
0.0005894628
0.0005894628
0.0005894628
0.0005894628
0.0005894628
0.0005894628
0.0005894628
0.0005894628
0.0005894628
0.0005894628
0.0005894628
0.0005894628
0.0005894628
0.0005894628
0.0005894628
0.0005894628
0.0005894628
0.0005894628
0.0005894628
0.0005894628
0.0005894628
0.0005894628
0.0005894628
0.0005894628
0.0005894628
0.0005894628
0.0005894628
0.0005894628
0.0005894628
0.0005894628
0.0005894628
0.0005894628
0.0005894628
0.0005894628
0.0005894628
0.0005894628
0.0005894628
0.0005894628
0.0005894628
0.0005894628
0.0005894628
0.0005894628
0.0005894628
0.0005894628
0.0005894628
0.0005894628
0.0005894628
0.0005894628
0.0005894628
0.0005894628
0.0005894628
0.0005894628
0.0005894628
0.0005894628
0.0005894628
0.0005894628
0.0005894628
0.0005894628
0.0005894628
0.0005894628
0.0005894628
0.0005894628
0.0005894628
0.0005894628
0.0005894628
0.0005894628
0.0005894628
0.0005894628
0.0005894628
0.0005894628
0.0005894628
0.0005894628
0.0005894628
0.0005894628
0.0005894628
0.0005894628
0.0005894628
0.0005894628
0.0005894628
0.0005894628
0.0005894628
0.0005894628
0.0005894628
0.0005894628
0.0005894628
0.0005894628
0.0005894628
0.0005894628
0.0005894628
0.0005894628
0.0005894628
0.0005894628
0.0005894628
0.0005894628
0.0005894628
0.0005894628
0.0005894628
0.0005894628
0.0005894628
0.0005894628
0.0005894628
0.0005894628
0.0005894628
0.0005894628
0.0005894628
0.0005894628
0.0005894628
0.0005894628
0.0005894628
0.0005894628
0.0005894628
0.0005894628
0.0005894628
0.0005894628
0.0005894628
0.0005894628
0.0005894628
0.0005894628
0.0005894628
0.0005894628
0.0005894628
0.0005894628
0.0005894628
0.0005894628
0.0005894628
0.0005894628
0.0005894628
0.0005894628
0.0005894628
0.0005894628
0.0005894628
0.0005894628
0.0005894628
0.0005894628
0.0005894628
0.0005894628
0.0005894628
0.0005894628
0.0005894628
0.0005894628
0.0005894628
0.0005894628
0.0005894628
0.0005894628
0.0005894628
0.0005894628
0.0005894628
0.0005894628
0.0005894628
0.0005894628
0.0005894628
0.0005894628
0.0005894628
0.0005894628
0.0005894628
0.0005894628
0.0005894628
0.0005894628
0.0005894628
0.0005894628
0.0005894628
0.0005894628
0.0005894628
0.0005894628
0.0005894628
0.0005894628
0.0005894628


SCALARS b FLOAT 1
LOOKUP_TABLE default
0.04420971
0.04420971
0.04420971
0.04420971
0.04420971
0.04420971
0.04420971
0.04420971
0.04420971
0.04420971
0.04420971
0.04420971
0.04420971
0.04420971
0.04420971
0.04420971
0.04420971
0.04420971
0.04420971
0.04420971
0.04420971
0.04420971
0.04420971
0.04420971
0.04420971
0.04420971
0.04420971
0.04420971
0.04420971
0.04420971
0.04420971
0.04420971
0.04420971
0.04420971
0.04420971
0.04420971
0.04420971
0.04420971
0.04420971
0.04420971
0.04420971
0.04420971
0.04420971
0.04420971
0.04420971
0.04420971
0.04420971
0.04420971
0.04420971
0.04420971
0.04420971
0.04420971
0.04420971
0.04420971
0.04420971
0.04420971
0.04420971
0.04420971
0.04420971
0.04420971
0.04420971
0.04420971
0.04420971
0.04420971
0.04420971
0.04420971
0.04420971
0.04420971
0.04420971
0.04420971
0.04420971
0.04420971
0.04420971
0.04420971
0.04420971
0.04420971
0.04420971
0.04420971
0.04420971
0.04420971
0.04420971
0.04420971
0.04420971
0.04420971
0.04420971
0.04420971
0.04420971
0.04420971
0.04420971
0.04420971
0.04420971
0.04420971
0.04420971
0.04420971
0.04420971
0.04420971
0.04420971
0.04420971
0.04420971
0.04420971
0.04420971
0.04420971
0.04420971
0.04420971
0.04420971
0.04420971
0.04420971
0.04420971
0.04420971
0.04420971
0.04420971
0.04420971
0.04420971
0.04420971
0.04420971
0.04420971
0.04420971
0.04420971
0.04420971
0.04420971
0.04420971
0.04420971
0.04420971
0.04420971
0.04420971
0.04420971
0.04420971
0.04420971
0.04420971
0.04420971
0.04420971
0.04420971
0.04420971
0.04420971
0.04420971
0.04420971
0.04420971
0.04420971
0.04420971
0.04420971
0.04420971
0.04420971
0.04420971
0.04420971
0.04420971
0.04420971
0.04420971
0.04420971
0.04420971
0.04420971
0.04420971
0.04420971
0.04420971
0.04420971
0.04420971
0.04420971
0.04420971
0.04420971
0.04420971
0.04420971
0.04420971
0.04420971
0.04420971
0.04420971
0.04420971
0.04420971
0.04420971
0.04420971
0.04420971
0.04420971
0.04420971
0.04420971
0.04420971
0.04420971
0.04420971
0.04420971
0.04420971
0.04420971
0.04420971
0.04420971
0.04420971
0.04420971
0.04420971
0.04420971
0.04420971
0.04420971
0.04420971
0.04420971
0.04420971
0.04420971
0.04420971
0.04420971
0.04420971
0.04420971
0.04420971
0.04420971
0.04420971
0.04420971
0.04420971
0.04420971
0.04420971
0.04420971
0.04420971
0.04420971
0.04420971
0.04420971
0.04420971
0.04420971
0.04420971
0.04420971
0.04420971
0.04420971
0.04420971
0.04420971
0.04420971
0.04420971
0.04420971
0.04420971
0.04420971
0.04420971
0.04420971
0.04420971
0.04420971
0.04420971
0.04420971
0.04420971
0.04420971
0.04420971
0.04420971
0.04420971
0.04420971
0.04420971
0.04420971
0.04420971
0.04420971
0.04420971
0.04420971
0.04420971
0.04420971
0.04420971
0.04420971
0.04420971
0.04420971
0.04420971
0.04420971
0.04420971
0.04420971
0.04420971
0.04420971
0.04420971
0.04420971
0.04420971
0.04420971
0.04420971
0.04420971
0.04420971
0.04420971
0.04420971
0.04420971
0.04420971
0.04420971
0.04420971
0.04420971
0.04420971
0.04420971
0.04420971
0.04420971
0.04420971
0.04420971
0.04420971
0.04420971
0.04420971
0.04420971
0.04420971
0.04420971
0.04420971
0.04420971
0.04420971
0.04420971
0.04420971
0.04420971
0.04420971
0.04420971
0.04420971
0.04420971
0.04420971
0.04420971
0.04420971
0.04420971
0.04420971
0.04420971
0.04420971
0.04420971
0.04420971
0.04420971
0.04420971
0.04420971
0.04420971
0.04420971
0.04420971
0.04420971
0.04420971
0.04420971
0.04420971
0.04420971
0.04420971
0.04420971
0.04420971
0.04420971
0.04420971
0.04420971
0.04420971
0.04420971
0.04420971
0.04420971
0.04420971
0.04420971
0.04420971
0.04420971
0.04420971
0.04420971
0.04420971
0.04420971
0.04420971
0.04420971
0.04420971
0.04420971
0.04420971
0.04420971
0.04420971
0.04420971
0.04420971
0.04420971
0.04420971
0.04420971
0.04420971
0.04420971
0.04420971
0.04420971
0.04420971
0.04420971
0.04420971
0.04420971
0.04420971
0.04420971
0.04420971
0.04420971
0.04420971
0.04420971
0.04420971


VECTORS d1 FLOAT
0 0.9709592 0.2392453
-0.009360475 0.9716555 0.2362159
-0.01871489 0.9722549 0.233174
-0.02806237 0.9727575 0.2301201
-0.03740202 0.9731635 0.2270546
-0.04673299 0.9734731 0.2239779
-0.05605439 0.9736865 0.2208905
-0.06536538 0.9738037 0.2177927
-0.07466509 0.9738252 0.2146851
-0.08395267 0.9737509 0.2115681
-0.09322729 0.9735813 0.2084421
-0.1024881 0.9733165 0.2053075
-0.1117342 0.9729567 0.2021648
-0.1209649 0.9725023 0.1990145
-0.1301793 0.9719534 0.1958569
-0.1393765 0.9713103 0.1926925
-0.1485559 0.9705734 0.1895218
-0.1577164 0.9697428 0.1863451
-0.1668575 0.9688188 0.1831629
-0.1759782 0.9678019 0.1799756
-0.1850778 0.9666922 0.1767837
-0.1941554 0.96549 0.1735876
-0.2032104 0.9641958 0.1703877
-0.2122419 0.9628098 0.1671844
-0.2212492 0.9613324 0.1639782
-0.2302316 0.9597638 0.1607695
-0.2391881 0.9581045 0.1575588
-0.2481182 0.9563548 0.1543463
-0.2570211 0.9545151 0.1511326
-0.265896 0.9525857 0.1479182
-0.2747422 0.950567 0.1447033
-0.283559 0.9484595 0.1414884
-0.2923456 0.9462634 0.138274
-0.3011014 0.9439791 0.1350604
-0.3098256 0.9416072 0.1318481
-0.3185176 0.939148 0.1286375
-0.3271767 0.9366018 0.1254289
-0.3358021 0.9339692 0.1222229
-0.3443932 0.9312506 0.1190198
-0.3529493 0.9284463 0.1158199
-0.3614698 0.9255568 0.1126238
-0.3699539 0.9225827 0.1094319
-0.3784011 0.9195242 0.1062444
-0.3868107 0.9163819 0.1030618
-0.3951819 0.9131562 0.09988462
-0.4035143 0.9098477 0.09671311
-0.4118072 0.9064567 0.0935477
-0.4200599 0.9029837 0.09038879
-0.4282718 0.8994293 0.08723677
-0.4364424 0.8957938 0.08409203
-0.4445709 0.8920779 0.08095495
-0.4526569 0.888282 0.07782592
-0.4606996 0.8844066 0.07470532
-0.4686986 0.8804521 0.07159354
-0.4766533 0.8764192 0.06849094
-0.484563 0.8723083 0.06539791
-0.4924272 0.86812 0.06231483
-0.5002454 0.8638547 0.05924206
-0.5080169 0.859513 0.05617997
-0.5157413 0.8550954 0.05312893
-0.523418 0.8506025 0.05008932
-0.5310464 0.8460348 0.04706148
-0.5386261 0.8413928 0.0440458
-0.5461565 0.8366771 0.04104261
-0.553637 0.8318883 0.03805229
-0.5610672 0.8270268 0.03507519
-0.5684465 0.8220933 0.03211165
-0.5757745 0.8170883 0.02916204
-0.5830506 0.8120124 0.02622669
-0.5902745 0.8068661 0.02330596
-0.5974455 0.80165 0.02040019
-0.6045632 0.7963647 0.01750972
-0.6116271 0.7910108 0.01463488
-0.6186368 0.7855888 0.01177603
-0.6255918 0.7800994 0.008933478
-0.6324917 0.7745431 0.006107571
-0.639336 0.7689205 0.003298634
-0.6461242 0.7632321 0.0005069945
-0.6528559 0.7574787 -0.002267024
-0.6595307 0.7516608 -0.005023099
-0.6661482 0.745779 -0.007760911
-0.672708 0.7398339 -0.01048014
-0.6792095 0.733826 -0.01318048
-0.6856525 0.7277562 -0.01586162
-0.6920365 0.7216248 -0.01852324
-0.6983611 0.7154326 -0.02116504
-0.704626 0.7091801 -0.02378672
-0.7108307 0.702868 -0.02638797
-0.7169748 0.6964969 -0.0289685
-0.723058 0.6900675 -0.031528
-0.7290799 0.6835803 -0.0340662
-0.7350402 0.6770359 -0.03658279
-0.7409384 0.6704351 -0.03907749
-0.7467743 0.6637784 -0.04155002
-0.7525474 0.6570665 -0.04400009
-0.7582575 0.6503 -0.04642742
-0.7639041 0.6434795 -0.04883174
-0.7694871 0.6366058 -0.05121277
-0.7750059 0.6296793 -0.05357024
-0.7804604 0.6227009 -0.05590389
-0.7858501 0.615671 -0.05821345
-0.7911748 0.6085905 -0.06049865
-0.7964342 0.6014598 -0.06275924
-0.8016279 0.5942797 -0.06499496
-0.8067557 0.5870508 -0.06720556
-0.8118173 0.5797738 -0.06939079
-0.8168123 0.5724493 -0.07155039
-0.8217405 0.565078 -0.07368413
-0.8266017 0.5576605 -0.07579176
-0.8313955 0.5501976 -0.07787305
-0.8361216 0.5426898 -0.07992776
-0.8407799 0.5351378 -0.08195565
-0.84537 0.5275423 -0.08395651
-0.8498917 0.519904 -0.08593009
-0.8543447 0.5122235 -0.08787618
-0.8587288 0.5045015 -0.08979456
-0.8630438 0.4967386 -0.09168502
-0.8672894 0.4889356 -0.09354733
-0.8714654 0.4810931 -0.09538129
-0.8755715 0.4732117 -0.09718669
-0.8796076 0.4652922 -0.09896333
-0.8835733 0.4573352 -0.100711
-0.8874686 0.4493414 -0.1024295
-0.8912932 0.4413115 -0.1041187
-0.8950468 0.4332461 -0.1057783
-0.8987293 0.425146 -0.1074082
-0.9023405 0.4170118 -0.1090081
-0.9058802 0.4088441 -0.110578
-0.9093482 0.4006438 -0.1121176
-0.9127444 0.3924114 -0.1136267
-0.9160684 0.3841476 -0.1151053
-0.9193203 0.3758532 -0.116553
-0.9224997 0.3675288 -0.1179698
-0.9256066 0.359175 -0.1193554
-0.9286407 0.3507927 -0.1207099
-0.931602 0.3423824 -0.1220328
-0.9344902 0.333945 -0.1233243
-0.9373052 0.3254809 -0.124584
-0.9400469 0.316991 -0.1258118
-0.942715 0.3084759 -0.1270076
-0.9453096 0.2999364 -0.1281714
-0.9478304 0.291373 -0.1293028
-0.9502774 0.2827866 -0.1304019
-0.9526503 0.2741778 -0.1314684
-0.9549491 0.2655473 -0.1325023
-0.9571737 0.2568957 -0.1335034
-0.9593239 0.2482239 -0.1344717
-0.9613996 0.2395324 -0.135407
-0.9634007 0.230822 -0.1363092
-0.9653272 0.2220934 -0.1371783
-0.9671789 0.2133472 -0.138014
-0.9689558 0.2045842 -0.1388164
-0.9706577 0.1958051 -0.1395853
-0.9722845 0.1870106 -0.1403206
-0.9738362 0.1782013 -0.1410223
-0.9753128 0.169378 -0.1416903
-0.976714 0.1605413 -0.1423244
-0.9780399 0.151692 -0.1429247
-0.9792904 0.1428308 -0.1434911
-0.9804654 0.1339583 -0.1440235
-0.9815649 0.1250753 -0.1445218
-0.9825888 0.1161825 -0.144986
-0.983537 0.1072805 -0.145416
-0.9844096 0.09837008 -0.1458118
-0.9852064 0.08945194 -0.1461733
-0.9859275 0.08052678 -0.1465005
-0.9865728 0.0715953 -0.1467934
-0.9871422 0.06265819 -0.1470519
-0.9876357 0.05371615 -0.147276
-0.9880534 0.04476991 -0.1474656
-0.9883952 0.03582014 -0.1476208
-0.988661 0.02686757 -0.1477416
-0.9888509 0.01791288 -0.1478278
-0.9889648 0.008956794 -0.1478796
-0.9890028 8.38538e-10 -0.1478968
-0.9889648 -0.008956792 -0.1478796
-0.9888509 -0.01791288 -0.1478278
-0.988661 -0.02686757 -0.1477416
-0.9883952 -0.03582014 -0.1476208
-0.9880534 -0.0447699 -0.1474656
-0.9876357 -0.05371615 -0.147276
-0.9871422 -0.06265818 -0.1470519
-0.9865728 -0.07159529 -0.1467934
-0.9859275 -0.08052678 -0.1465005
-0.9852064 -0.08945194 -0.1461733
-0.9844096 -0.09837008 -0.1458118
-0.983537 -0.1072805 -0.145416
-0.9825888 -0.1161825 -0.144986
-0.9815649 -0.1250753 -0.1445218
-0.9804654 -0.1339583 -0.1440235
-0.9792904 -0.1428308 -0.1434911
-0.9780399 -0.151692 -0.1429247
-0.976714 -0.1605413 -0.1423244
-0.9753128 -0.169378 -0.1416903
-0.9738362 -0.1782013 -0.1410223
-0.9722845 -0.1870106 -0.1403206
-0.9706577 -0.1958051 -0.1395853
-0.9689558 -0.2045842 -0.1388164
-0.9671789 -0.2133472 -0.138014
-0.9653272 -0.2220934 -0.1371783
-0.9634007 -0.230822 -0.1363092
-0.9613996 -0.2395324 -0.135407
-0.9593239 -0.2482239 -0.1344717
-0.9571737 -0.2568957 -0.1335034
-0.9549491 -0.2655473 -0.1325023
-0.9526503 -0.2741778 -0.1314684
-0.9502774 -0.2827866 -0.1304019
-0.9478304 -0.291373 -0.1293028
-0.9453096 -0.2999364 -0.1281714
-0.942715 -0.3084759 -0.1270076
-0.9400469 -0.316991 -0.1258118
-0.9373052 -0.3254809 -0.124584
-0.9344902 -0.3339449 -0.1233243
-0.931602 -0.3423824 -0.1220328
-0.9286407 -0.3507927 -0.1207099
-0.9256066 -0.359175 -0.1193554
-0.9224997 -0.3675288 -0.1179698
-0.9193203 -0.3758532 -0.116553
-0.9160684 -0.3841476 -0.1151053
-0.9127444 -0.3924114 -0.1136267
-0.9093482 -0.4006438 -0.1121176