# vtk DataFile Version 2.0
Written badly by Kevin Korner
ASCII
DATASET POLYDATA
POINTS 350 FLOAT
0 0 0
0.00286533 0 0
0.005730472 2.502786e-05 2.106249e-05
0.008595057 7.518976e-05 6.290735e-05
0.01145872 0.0001505849 0.000125252
0.01432108 0.0002513056 0.0002078116
0.0171818 0.0003774375 0.0003102991
0.02004051 0.0005290592 0.0004324255
0.02289685 0.0007062431 0.0005738999
0.02575048 0.0009090546 0.0007344297
0.02860106 0.001137553 0.0009137206
0.03144822 0.001391791 0.001111477
0.03429165 0.001671814 0.001327402
0.037131 0.001977664 0.001561196
0.03996594 0.002309374 0.001812562
0.04279615 0.002666972 0.002081197
0.0456213 0.00305048 0.002366802
0.04844107 0.003459914 0.002669074
0.05125515 0.003895285 0.002987711
0.05406322 0.004356598 0.00332241
0.05686499 0.004843852 0.003672866
0.05966013 0.005357041 0.004038777
0.06244837 0.005896153 0.004419839
0.0652294 0.006461171 0.004815747
0.06800293 0.007052074 0.005226198
0.07076868 0.007668834 0.005650887
0.07352636 0.00831142 0.006089512
0.0762757 0.008979794 0.006541769
0.07901642 0.009673915 0.007007354
0.08174825 0.01039374 0.007485966
0.08447092 0.01113921 0.007977303
0.08718419 0.01191028 0.008481063
0.08988778 0.01270688 0.008996947
0.09258144 0.01352895 0.009524654
0.09526493 0.01437643 0.01006389
0.097938 0.01524924 0.01061434
0.1006004 0.01614731 0.01117573
0.1032519 0.01707055 0.01174776
0.1058923 0.01801889 0.01233012
0.1085213 0.01899223 0.01292253
0.1111388 0.01999049 0.01352469
0.1137444 0.02101356 0.01413632
0.116338 0.02206137 0.01475713
0.1189194 0.02313379 0.01538682
0.1214883 0.02423074 0.01602511
0.1240446 0.02535209 0.01667171
0.126588 0.02649775 0.01732635
0.1291184 0.0276676 0.01798874
0.1316356 0.02886152 0.0186586
0.1341392 0.0300794 0.01933566
0.1366293 0.03132112 0.02001963
0.1391056 0.03258654 0.02071024
0.1415678 0.03387555 0.02140722
0.144016 0.03518802 0.02211029
0.1464497 0.03652382 0.0228192
0.148869 0.03788281 0.02353366
0.1512736 0.03926486 0.02425342
0.1536633 0.04066983 0.02497822
0.156038 0.04209758 0.02570778
0.1583976 0.04354797 0.02644185
0.1607419 0.04502087 0.02718017
0.1630707 0.04651611 0.02792249
0.1653839 0.04803357 0.02866856
0.1676813 0.04957309 0.02941811
0.1699628 0.05113451 0.03017091
0.1722283 0.0527177 0.0309267
0.1744776 0.05432249 0.03168524
0.1767106 0.05594873 0.03244628
0.1789271 0.05759627 0.03320959
0.1811271 0.05926495 0.03397491
0.1833104 0.06095462 0.03474203
0.1854768 0.0626651 0.0355107
0.1876263 0.06439625 0.03628068
0.1897588 0.0661479 0.03705175
0.191874 0.06791989 0.03782367
0.193972 0.06971205 0.03859622
0.1960525 0.07152423 0.03936918
0.1981156 0.07335625 0.04014231
0.200161 0.07520795 0.04091541
0.2021886 0.07707916 0.04168824
0.2041984 0.07896972 0.0424606
0.2061903 0.08087945 0.04323226
0.2081642 0.08280818 0.04400302
0.2101199 0.08475575 0.04477266
0.2120573 0.08672199 0.04554097
0.2139764 0.08870671 0.04630774
0.2158771 0.09070976 0.04707277
0.2177593 0.09273095 0.04783586
0.2196229 0.09477012 0.0485968
0.2214677 0.09682708 0.04935539
0.2232938 0.09890167 0.05011144
0.225101 0.1009937 0.05086475
0.2268893 0.103103 0.05161512
0.2286585 0.1052294 0.05236236
0.2304086 0.1073728 0.05310628
0.2321395 0.1095328 0.05384669
0.2338511 0.1117095 0.0545834
0.2355434 0.1139025 0.05531624
0.2372162 0.1161117 0.056045
0.2388695 0.118337 0.05676952
0.2405032 0.1205781 0.05748961
0.2421173 0.1228348 0.05820508
0.2437116 0.1251071 0.05891578
0.2452861 0.1273947 0.05962151
0.2468408 0.1296974 0.06032211
0.2483755 0.132015 0.0610174
0.2498901 0.1343474 0.06170721
0.2513847 0.1366943 0.06239138
0.2528592 0.1390557 0.06306974
0.2543134 0.1414312 0.06374211
0.2557473 0.1438208 0.06440834
0.2571609 0.1462243 0.06506826
0.258554 0.1486413 0.06572172
0.2599267 0.1510719 0.06636855
0.2612788 0.1535157 0.06700859
0.2626103 0.1559726 0.06764169
0.2639212 0.1584424 0.0682677
0.2652113 0.1609249 0.06888645
0.2664806 0.1634199 0.06949781
0.267729 0.1659273 0.07010161
0.2689565 0.1684468 0.07069771
0.2701631 0.1709783 0.07128597
0.2713486 0.1735215 0.07186623
0.272513 0.1760763 0.07243836
0.2736562 0.1786425 0.07300221
0.2747782 0.1812198 0.07355763
0.275879 0.1838081 0.0741045
0.2769584 0.1864072 0.07464268
0.2780164 0.1890169 0.07517202
0.279053 0.191637 0.07569239
0.280068 0.1942673 0.07620367
0.2810615 0.1969076 0.07670571
0.2820334 0.1995576 0.0771984
0.2829836 0.2022173 0.07768159
0.2839121 0.2048863 0.07815518
0.2848188 0.2075645 0.07861903
0.2857037 0.2102517 0.07907303
0.2865666 0.2129477 0.07951704
0.2874076 0.2156522 0.07995096
0.2882267 0.2183651 0.08037466
0.2890236 0.2210862 0.08078804
0.2897985 0.2238152 0.08119098
0.2905512 0.2265519 0.08158337
0.2912818 0.2292961 0.08196511
0.29199 0.2320476 0.08233608
0.292676 0.2348062 0.08269618
0.2933397 0.2375717 0.08304532
0.2939809 0.2403438 0.08338339
0.2945997 0.2431223 0.0837103
0.295196 0.2459071 0.08402595
0.2957698 0.2486978 0.08433026
0.296321 0.2514944 0.08462312
0.2968495 0.2542964 0.08490447
0.2973555 0.2571038 0.08517421
0.2978387 0.2599163 0.08543226
0.2982992 0.2627336 0.08567856
0.2987369 0.2655556 0.08591301
0.2991518 0.268382 0.08613556
0.2995438 0.2712125 0.08634613
0.299913 0.274047 0.08654466
0.3002593 0.2768853 0.08673109
0.3005826 0.2797269 0.08690535
0.3008829 0.2825719 0.08706741
0.3011603 0.2854198 0.08721719
0.3014146 0.2882705 0.08735467
0.3016459 0.2911238 0.08747979
0.3018541 0.2939793 0.08759251
0.3020393 0.2968369 0.08769279
0.3022013 0.2996963 0.08778062
0.3023402 0.3025572 0.08785595
0.302456 0.3054195 0.08791876
0.3025486 0.3082829 0.08796903
0.3026181 0.3111472 0.08800675
0.3026644 0.314012 0.08803191
0.3026876 0.3168772 0.08804449
0.3026876 0.3197426 0.08804449
0.3026644 0.3226078 0.08803191
0.3026181 0.3254726 0.08800675
0.3025486 0.3283368 0.08796903
0.302456 0.3312002 0.08791876
0.3023402 0.3340625 0.08785595
0.3022013 0.3369235 0.08778062
0.3020393 0.3397829 0.08769279
0.3018541 0.3426405 0.08759251
0.3016459 0.345496 0.08747979
0.3014146 0.3483492 0.08735467
0.3011603 0.3512 0.08721719
0.3008829 0.3540479 0.08706741
0.3005826 0.3568928 0.08690535
0.3002593 0.3597345 0.08673109
0.299913 0.3625727 0.08654466
0.2995438 0.3654072 0.08634613
0.2991518 0.3682378 0.08613556
0.2987369 0.3710642 0.08591301
0.2982992 0.3738862 0.08567856
0.2978387 0.3767035 0.08543226
0.2973555 0.379516 0.08517421
0.2968495 0.3823234 0.08490447
0.296321 0.3851254 0.08462312
0.2957698 0.3879219 0.08433026
0.295196 0.3907127 0.08402595
0.2945997 0.3934974 0.0837103
0.2939809 0.396276 0.08338339
0.2933397 0.3990481 0.08304532
0.292676 0.4018136 0.08269618
0.29199 0.4045722 0.08233608
0.2912818 0.4073237 0.08196511
0.2905513 0.4100679 0.08158337
0.2897985 0.4128046 0.08119098
0.2890236 0.4155336 0.08078804
0.2882267 0.4182546 0.08037466
0.2874076 0.4209675 0.07995096
0.2865666 0.4236721 0.07951704
0.2857037 0.426368 0.07907303
0.2848188 0.4290552 0.07861903
0.2839121 0.4317335 0.07815518
0.2829836 0.4344025 0.0776816
0.2820334 0.4370621 0.0771984
0.2810615 0.4397122 0.07670571
0.280068 0.4423525 0.07620367
0.279053 0.4449827 0.07569239
0.2780164 0.4476028 0.07517202
0.2769584 0.4502125 0.07464268
0.275879 0.4528116 0.0741045
0.2747782 0.4554 0.07355763
0.2736562 0.4579773 0.07300221
0.272513 0.4605435 0.07243836
0.2713486 0.4630983 0.07186623
0.2701631 0.4656415 0.07128597
0.2689565 0.4681729 0.07069771
0.267729 0.4706925 0.07010161
0.2664806 0.4731998 0.06949781
0.2652113 0.4756949 0.06888645
0.2639212 0.4781774 0.0682677
0.2626103 0.4806472 0.06764169
0.2612788 0.4831041 0.06700859
0.2599267 0.4855479 0.06636855
0.258554 0.4879785 0.06572172
0.2571609 0.4903955 0.06506826
0.2557473 0.4927989 0.06440834
0.2543134 0.4951885 0.06374211
0.2528592 0.4975641 0.06306974
0.2513847 0.4999254 0.06239138
0.2498901 0.5022724 0.06170721
0.2483755 0.5046048 0.0610174
0.2468408 0.5069224 0.06032211
0.2452861 0.5092251 0.05962151
0.2437116 0.5115127 0.05891578
0.2421173 0.5137849 0.05820508
0.2405032 0.5160417 0.05748961
0.2388695 0.5182828 0.05676952
0.2372162 0.5205081 0.056045
0.2355434 0.5227173 0.05531624
0.2338511 0.5249103 0.0545834
0.2321395 0.5270869 0.05384669
0.2304086 0.529247 0.05310628
0.2286585 0.5313903 0.05236236
0.2268893 0.5335167 0.05161512
0.225101 0.5356261 0.05086475
0.2232938 0.5377181 0.05011144
0.2214677 0.5397927 0.04935539
0.2196229 0.5418497 0.0485968
0.2177593 0.5438888 0.04783586
0.2158771 0.54591 0.04707277
0.2139764 0.5479131 0.04630774
0.2120573 0.5498978 0.04554097
0.2101199 0.551864 0.04477266
0.2081642 0.5538116 0.04400302
0.2061903 0.5557403 0.04323226
0.2041984 0.5576501 0.0424606
0.2021886 0.5595406 0.04168824
0.200161 0.5614118 0.04091541
0.1981156 0.5632635 0.04014231
0.1960525 0.5650955 0.03936918
0.193972 0.5669077 0.03859622
0.191874 0.5686999 0.03782367
0.1897588 0.5704719 0.03705175
0.1876263 0.5722235 0.03628068
0.1854768 0.5739547 0.0355107
0.1833104 0.5756652 0.03474203
0.1811271 0.5773548 0.03397491
0.1789271 0.5790235 0.03320959
0.1767106 0.580671 0.03244628
0.1744776 0.5822973 0.03168524
0.1722283 0.5839021 0.0309267
0.1699628 0.5854853 0.03017091
0.1676813 0.5870467 0.02941811
0.1653839 0.5885862 0.02866856
0.1630707 0.5901037 0.02792249
0.1607419 0.5915989 0.02718017
0.1583976 0.5930718 0.02644185
0.156038 0.5945222 0.02570778
0.1536633 0.5959499 0.02497822
0.1512736 0.5973549 0.02425342
0.148869 0.598737 0.02353366
0.1464497 0.600096 0.0228192
0.144016 0.6014317 0.02211029
0.1415678 0.6027442 0.02140722
0.1391056 0.6040332 0.02071024
0.1366293 0.6052987 0.02001963
0.1341392 0.6065404 0.01933566
0.1316356 0.6077582 0.0186586
0.1291184 0.6089522 0.01798874
0.126588 0.610122 0.01732635
0.1240446 0.6112677 0.01667171
0.1214883 0.612389 0.01602511
0.1189194 0.613486 0.01538682
0.116338 0.6145584 0.01475713
0.1137444 0.6156062 0.01413632
0.1111388 0.6166293 0.01352469
0.1085213 0.6176275 0.01292253
0.1058923 0.6186009 0.01233012
0.1032519 0.6195492 0.01174776
0.1006004 0.6204725 0.01117573
0.097938 0.6213705 0.01061434
0.09526493 0.6222433 0.01006389
0.09258144 0.6230908 0.009524654
0.08988778 0.6239129 0.008996947
0.08718419 0.6247095 0.008481063
0.08447092 0.6254806 0.007977303
0.08174825 0.626226 0.007485966
0.07901642 0.6269459 0.007007354
0.0762757 0.62764 0.006541769
0.07352636 0.6283084 0.006089512
0.07076868 0.6289509 0.005650887
0.06800293 0.6295677 0.005226198
0.0652294 0.6301586 0.004815747
0.06244837 0.6307236 0.004419839
0.05966013 0.6312627 0.004038777
0.05686499 0.6317759 0.003672866
0.05406322 0.6322632 0.00332241
0.05125515 0.6327245 0.002987711
0.04844107 0.6331599 0.002669074
0.0456213 0.6335693 0.002366802
0.04279615 0.6339528 0.002081197
0.03996594 0.6343104 0.001812562
0.037131 0.6346421 0.001561196
0.03429165 0.634948 0.001327402
0.03144822 0.635228 0.001111477
0.02860106 0.6354822 0.0009137206
0.02575048 0.6357107 0.0007344297
0.02289685 0.6359135 0.0005738999
0.02004051 0.6360907 0.0004324255
0.0171818 0.6362423 0.0003102991
0.01432108 0.6363685 0.0002078116
0.01145872 0.6364692 0.000125252
0.008595057 0.6365446 6.290735e-05
0.005730472 0.6365947 2.106249e-05
0.00286533 0.6366198 0
0 0.6366198 0

LINES 349 1047
2 0 1
2 1 2
2 2 3
2 3 4
2 4 5
2 5 6
2 6 7
2 7 8
2 8 9
2 9 10
2 10 11
2 11 12
2 12 13
2 13 14
2 14 15
2 15 16
2 16 17
2 17 18
2 18 19
2 19 20
2 20 21
2 21 22
2 22 23
2 23 24
2 24 25
2 25 26
2 26 27
2 27 28
2 28 29
2 29 30
2 30 31
2 31 32
2 32 33
2 33 34
2 34 35
2 35 36
2 36 37
2 37 38
2 38 39
2 39 40
2 40 41
2 41 42
2 42 43
2 43 44
2 44 45
2 45 46
2 46 47
2 47 48
2 48 49
2 49 50
2 50 51
2 51 52
2 52 53
2 53 54
2 54 55
2 55 56
2 56 57
2 57 58
2 58 59
2 59 60
2 60 61
2 61 62
2 62 63
2 63 64
2 64 65
2 65 66
2 66 67
2 67 68
2 68 69
2 69 70
2 70 71
2 71 72
2 72 73
2 73 74
2 74 75
2 75 76
2 76 77
2 77 78
2 78 79
2 79 80
2 80 81
2 81 82
2 82 83
2 83 84
2 84 85
2 85 86
2 86 87
2 87 88
2 88 89
2 89 90
2 90 91
2 91 92
2 92 93
2 93 94
2 94 95
2 95 96
2 96 97
2 97 98
2 98 99
2 99 100
2 100 101
2 101 102
2 102 103
2 103 104
2 104 105
2 105 106
2 106 107
2 107 108
2 108 109
2 109 110
2 110 111
2 111 112
2 112 113
2 113 114
2 114 115
2 115 116
2 116 117
2 117 118
2 118 119
2 119 120
2 120 121
2 121 122
2 122 123
2 123 124
2 124 125
2 125 126
2 126 127
2 127 128
2 128 129
2 129 130
2 130 131
2 131 132
2 132 133
2 133 134
2 134 135
2 135 136
2 136 137
2 137 138
2 138 139
2 139 140
2 140 141
2 141 142
2 142 143
2 143 144
2 144 145
2 145 146
2 146 147
2 147 148
2 148 149
2 149 150
2 150 151
2 151 152
2 152 153
2 153 154
2 154 155
2 155 156
2 156 157
2 157 158
2 158 159
2 159 160
2 160 161
2 161 162
2 162 163
2 163 164
2 164 165
2 165 166
2 166 167
2 167 168
2 168 169
2 169 170
2 170 171
2 171 172
2 172 173
2 173 174
2 174 175
2 175 176
2 176 177
2 177 178
2 178 179
2 179 180
2 180 181
2 181 182
2 182 183
2 183 184
2 184 185
2 185 186
2 186 187
2 187 188
2 188 189
2 189 190
2 190 191
2 191 192
2 192 193
2 193 194
2 194 195
2 195 196
2 196 197
2 197 198
2 198 199
2 199 200
2 200 201
2 201 202
2 202 203
2 203 204
2 204 205
2 205 206
2 206 207
2 207 208
2 208 209
2 209 210
2 210 211
2 211 212
2 212 213
2 213 214
2 214 215
2 215 216
2 216 217
2 217 218
2 218 219
2 219 220
2 220 221
2 221 222
2 222 223
2 223 224
2 224 225
2 225 226
2 226 227
2 227 228
2 228 229
2 229 230
2 230 231
2 231 232
2 232 233
2 233 234
2 234 235
2 235 236
2 236 237
2 237 238
2 238 239
2 239 240
2 240 241
2 241 242
2 242 243
2 243 244
2 244 245
2 245 246
2 246 247
2 247 248
2 248 249
2 249 250
2 250 251
2 251 252
2 252 253
2 253 254
2 254 255
2 255 256
2 256 257
2 257 258
2 258 259
2 259 260
2 260 261
2 261 262
2 262 263
2 263 264
2 264 265
2 265 266
2 266 267
2 267 268
2 268 269
2 269 270
2 270 271
2 271 272
2 272 273
2 273 274
2 274 275
2 275 276
2 276 277
2 277 278
2 278 279
2 279 280
2 280 281
2 281 282
2 282 283
2 283 284
2 284 285
2 285 286
2 286 287
2 287 288
2 288 289
2 289 290
2 290 291
2 291 292
2 292 293
2 293 294
2 294 295
2 295 296
2 296 297
2 297 298
2 298 299
2 299 300
2 300 301
2 301 302
2 302 303
2 303 304
2 304 305
2 305 306
2 306 307
2 307 308
2 308 309
2 309 310
2 310 311
2 311 312
2 312 313
2 313 314
2 314 315
2 315 316
2 316 317
2 317 318
2 318 319
2 319 320
2 320 321
2 321 322
2 322 323
2 323 324
2 324 325
2 325 326
2 326 327
2 327 328
2 328 329
2 329 330
2 330 331
2 331 332
2 332 333
2 333 334
2 334 335
2 335 336
2 336 337
2 337 338
2 338 339
2 339 340
2 340 341
2 341 342
2 342 343
2 343 344
2 344 345
2 345 346
2 346 347
2 347 348
2 348 349


POINT_DATA 350
SCALARS a FLOAT 1
LOOKUP_TABLE default
0.0005894628
0.0005894628
0.0005894628
0.0005894628
0.0005894628
0.0005894628
0.0005894628
0.0005894628
0.0005894628
0.0005894628
0.0005894628
0.0005894628
0.0005894628
0.0005894628
0.0005894628
0.0005894628
0.0005894628
0.0005894628
0.0005894628
0.0005894628
0.0005894628
0.0005894628
0.0005894628
0.0005894628
0.0005894628
0.0005894628
0.0005894628
0.0005894628
0.0005894628
0.0005894628
0.0005894628
0.0005894628
0.0005894628
0.0005894628
0.0005894628
0.0005894628
0.0005894628
0.0005894628
0.0005894628
0.0005894628
0.0005894628
0.0005894628
0.0005894628
0.0005894628
0.0005894628
0.0005894628
0.0005894628
0.0005894628
0.0005894628
0.0005894628
0.0005894628
0.0005894628
0.0005894628
0.0005894628
0.0005894628
0.0005894628
0.0005894628
0.0005894628
0.0005894628
0.0005894628
0.0005894628
0.0005894628
0.0005894628
0.0005894628
0.0005894628
0.0005894628
0.0005894628
0.0005894628
0.0005894628
0.0005894628
0.0005894628
0.0005894628
0.0005894628
0.0005894628
0.0005894628
0.0005894628
0.0005894628
0.0005894628
0.0005894628
0.0005894628
0.0005894628
0.0005894628
0.0005894628
0.0005894628
0.0005894628
0.0005894628
0.0005894628
0.0005894628
0.0005894628
0.0005894628
0.0005894628
0.0005894628
0.0005894628
0.0005894628
0.0005894628
0.0005894628
0.0005894628
0.0005894628
0.0005894628
0.0005894628
0.0005894628
0.0005894628
0.0005894628
0.0005894628
0.0005894628
0.0005894628
0.0005894628
0.0005894628
0.0005894628
0.0005894628
0.0005894628
0.0005894628
0.0005894628
0.0005894628
0.0005894628
0.0005894628
0.0005894628
0.0005894628
0.0005894628
0.0005894628
0.0005894628
0.0005894628
0.0005894628
0.0005894628
0.0005894628
0.0005894628
0.0005894628
0.0005894628
0.0005894628
0.0005894628
0.0005894628
0.0005894628
0.0005894628
0.0005894628
0.0005894628
0.0005894628
0.0005894628
0.0005894628
0.0005894628
0.0005894628
0.0005894628
0.0005894628
0.0005894628
0.0005894628
0.0005894628
0.0005894628
0.0005894628
0.0005894628
0.0005894628
0.0005894628
0.0005894628
0.0005894628
0.0005894628
0.0005894628
0.0005894628
0.0005894628
0.0005894628
0.0005894628
0.0005894628
0.0005894628
0.0005894628
0.0005894628
0.0005894628
0.0005894628
0.0005894628
0.0005894628
0.0005894628
0.0005894628
0.0005894628
0.0005894628
0.0005894628
0.0005894628
0.0005894628
0.0005894628
0.0005894628
0.0005894628
0.0005894628
0.0005894628
0.0005894628
0.0005894628
0.0005894628
0.0005894628
0.0005894628
0.0005894628
0.0005894628
0.0005894628
0.0005894628
0.0005894628
0.0005894628
0.0005894628
0.0005894628
0.0005894628
0.0005894628
0.0005894628
0.0005894628
0.0005894628
0.0005894628
0.0005894628
0.0005894628
0.0005894628
0.0005894628
0.0005894628
0.0005894628
0.0005894628
0.0005894628
0.0005894628
0.0005894628
0.0005894628
0.0005894628
0.0005894628
0.0005894628
0.0005894628
0.0005894628
0.0005894628
0.0005894628
0.0005894628
0.0005894628
0.0005894628
0.0005894628
0.0005894628
0.0005894628
0.0005894628
0.0005894628
0.0005894628
0.0005894628
0.0005894628
0.0005894628
0.0005894628
0.0005894628
0.0005894628
0.0005894628
0.0005894628
0.0005894628
0.0005894628
0.0005894628
0.0005894628
0.0005894628
0.0005894628
0.0005894628
0.0005894628
0.0005894628
0.0005894628
0.0005894628
0.0005894628
0.0005894628
0.0005894628
0.0005894628
0.0005894628
0.0005894628
0.0005894628
0.0005894628
0.0005894628
0.0005894628
0.0005894628
0.0005894628
0.0005894628
0.0005894628
0.0005894628
0.0005894628
0.0005894628
0.0005894628
0.0005894628
0.0005894628
0.0005894628
0.0005894628
0.0005894628
0.0005894628
0.0005894628
0.0005894628
0.0005894628
0.0005894628
0.0005894628
0.0005894628
0.0005894628
0.0005894628
0.0005894628
0.0005894628
0.0005894628
0.0005894628
0.0005894628
0.0005894628
0.0005894628
0.0005894628
0.0005894628
0.0005894628
0.0005894628
0.0005894628
0.0005894628
0.0005894628
0.0005894628
0.0005894628
0.0005894628
0.0005894628
0.0005894628
0.0005894628
0.0005894628
0.0005894628
0.0005894628
0.0005894628
0.0005894628
0.0005894628
0.0005894628
0.0005894628
0.0005894628
0.0005894628
0.0005894628
0.0005894628
0.0005894628
0.0005894628
0.0005894628
0.0005894628
0.0005894628
0.0005894628
0.0005894628
0.0005894628
0.0005894628
0.0005894628
0.0005894628
0.0005894628
0.0005894628
0.0005894628
0.0005894628
0.0005894628
0.0005894628
0.0005894628
0.0005894628
0.0005894628
0.0005894628
0.0005894628
0.0005894628
0.0005894628
0.0005894628
0.0005894628
0.0005894628
0.0005894628
0.0005894628
0.0005894628
0.0005894628
0.0005894628
0.0005894628
0.0005894628
0.0005894628
0.0005894628
0.0005894628
0.0005894628
0.0005894628
0.0005894628
0.0005894628
0.0005894628
0.0005894628


SCALARS b FLOAT 1
LOOKUP_TABLE default
0.04420971
0.04420971
0.04420971
0.04420971
0.04420971
0.04420971
0.04420971
0.04420971
0.04420971
0.04420971
0.04420971
0.04420971
0.04420971
0.04420971
0.04420971
0.04420971
0.04420971
0.04420971
0.04420971
0.04420971
0.04420971
0.04420971
0.04420971
0.04420971
0.04420971
0.04420971
0.04420971
0.04420971
0.04420971
0.04420971
0.04420971
0.04420971
0.04420971
0.04420971
0.04420971
0.04420971
0.04420971
0.04420971
0.04420971
0.04420971
0.04420971
0.04420971
0.04420971
0.04420971
0.04420971
0.04420971
0.04420971
0.04420971
0.04420971
0.04420971
0.04420971
0.04420971
0.04420971
0.04420971
0.04420971
0.04420971
0.04420971
0.04420971
0.04420971
0.04420971
0.04420971
0.04420971
0.04420971
0.04420971
0.04420971
0.04420971
0.04420971
0.04420971
0.04420971
0.04420971
0.04420971
0.04420971
0.04420971
0.04420971
0.04420971
0.04420971
0.04420971
0.04420971
0.04420971
0.04420971
0.04420971
0.04420971
0.04420971
0.04420971
0.04420971
0.04420971
0.04420971
0.04420971
0.04420971
0.04420971
0.04420971
0.04420971
0.04420971
0.04420971
0.04420971
0.04420971
0.04420971
0.04420971
0.04420971
0.04420971
0.04420971
0.04420971
0.04420971
0.04420971
0.04420971
0.04420971
0.04420971
0.04420971
0.04420971
0.04420971
0.04420971
0.04420971
0.04420971
0.04420971
0.04420971
0.04420971
0.04420971
0.04420971
0.04420971
0.04420971
0.04420971
0.04420971
0.04420971
0.04420971
0.04420971
0.04420971
0.04420971
0.04420971
0.04420971
0.04420971
0.04420971
0.04420971
0.04420971
0.04420971
0.04420971
0.04420971
0.04420971
0.04420971
0.04420971
0.04420971
0.04420971
0.04420971
0.04420971
0.04420971
0.04420971
0.04420971
0.04420971
0.04420971
0.04420971
0.04420971
0.04420971
0.04420971
0.04420971
0.04420971
0.04420971
0.04420971
0.04420971
0.04420971
0.04420971
0.04420971
0.04420971
0.04420971
0.04420971
0.04420971
0.04420971
0.04420971
0.04420971
0.04420971
0.04420971
0.04420971
0.04420971
0.04420971
0.04420971
0.04420971
0.04420971
0.04420971
0.04420971
0.04420971
0.04420971
0.04420971
0.04420971
0.04420971
0.04420971
0.04420971
0.04420971
0.04420971
0.04420971
0.04420971
0.04420971
0.04420971
0.04420971
0.04420971
0.04420971
0.04420971
0.04420971
0.04420971
0.04420971
0.04420971
0.04420971
0.04420971
0.04420971
0.04420971
0.04420971
0.04420971
0.04420971
0.04420971
0.04420971
0.04420971
0.04420971
0.04420971
0.04420971
0.04420971
0.04420971
0.04420971
0.04420971
0.04420971
0.04420971
0.04420971
0.04420971
0.04420971
0.04420971
0.04420971
0.04420971
0.04420971
0.04420971
0.04420971
0.04420971
0.04420971
0.04420971
0.04420971
0.04420971
0.04420971
0.04420971
0.04420971
0.04420971
0.04420971
0.04420971
0.04420971
0.04420971
0.04420971
0.04420971
0.04420971
0.04420971
0.04420971
0.04420971
0.04420971
0.04420971
0.04420971
0.04420971
0.04420971
0.04420971
0.04420971
0.04420971
0.04420971
0.04420971
0.04420971
0.04420971
0.04420971
0.04420971
0.04420971
0.04420971
0.04420971
0.04420971
0.04420971
0.04420971
0.04420971
0.04420971
0.04420971
0.04420971
0.04420971
0.04420971
0.04420971
0.04420971
0.04420971
0.04420971
0.04420971
0.04420971
0.04420971
0.04420971
0.04420971
0.04420971
0.04420971
0.04420971
0.04420971
0.04420971
0.04420971
0.04420971
0.04420971
0.04420971
0.04420971
0.04420971
0.04420971
0.04420971
0.04420971
0.04420971
0.04420971
0.04420971
0.04420971
0.04420971
0.04420971
0.04420971
0.04420971
0.04420971
0.04420971
0.04420971
0.04420971
0.04420971
0.04420971
0.04420971
0.04420971
0.04420971
0.04420971
0.04420971
0.04420971
0.04420971
0.04420971
0.04420971
0.04420971
0.04420971
0.04420971
0.04420971
0.04420971
0.04420971
0.04420971
0.04420971
0.04420971
0.04420971
0.04420971
0.04420971
0.04420971
0.04420971
0.04420971
0.04420971
0.04420971
0.04420971
0.04420971
0.04420971
0.04420971
0.04420971
0.04420971
0.04420971
0.04420971
0.04420971
0.04420971
0.04420971
0.04420971
0.04420971
0.04420971
0.04420971
0.04420971


VECTORS d1 FLOAT
0 0.7622392 0.6472955
-0.01141611 0.7677786 0.6406135
-0.0227972 0.7731428 0.6338222
-0.03414087 0.7783317 0.6269244
-0.04544478 0.7833457 0.6199228
-0.05670665 0.7881851 0.6128202
-0.06792421 0.7928503 0.6056193
-0.0790953 0.7973416 0.5983229
-0.09021777 0.8016595 0.5909338
-0.1012896 0.8058046 0.5834547
-0.1123086 0.8097774 0.5758883
-0.123273 0.8135785 0.5682374
-0.1341807 0.8172087 0.5605047
-0.14503 0.8206686 0.5526928
-0.155819 0.823959 0.5448045
-0.1665459 0.8270808 0.5368425
-0.1772091 0.8300347 0.5288094
-0.1878069 0.8328217 0.5207078
-0.1983377 0.8354427 0.5125404
-0.2088 0.8378987 0.5043098
-0.2191922 0.8401907 0.4960186
-0.229513 0.8423197 0.4876693
-0.2397609 0.8442868 0.4792645
-0.2499347 0.8460932 0.4708067
-0.260033 0.8477399 0.4622985
-0.2700546 0.8492282 0.4537422
-0.2799983 0.8505592 0.4451404
-0.289863 0.8517342 0.4364955
-0.2996476 0.8527544 0.4278098
-0.3093511 0.8536211 0.4190858
-0.3189725 0.8543356 0.4103258
-0.3285109 0.8548992 0.4015321
-0.3379653 0.8553132 0.392707
-0.347335 0.855579 0.3838528
-0.3566191 0.855698 0.3749717
-0.3658169 0.8556715 0.366066
-0.3749277 0.8555009 0.3571377
-0.3839509 0.8551878 0.3481891
-0.3928857 0.8547334 0.3392222
-0.4017316 0.8541392 0.3302392
-0.4104882 0.8534067 0.3212421
-0.4191548 0.8525373 0.312233
-0.4277311 0.8515324 0.3032138
-0.4362167 0.8503936 0.2941864
-0.4446111 0.8491224 0.2851529
-0.452914 0.8477201 0.2761152
-0.4611252 0.8461882 0.2670751
-0.4692443 0.8445283 0.2580344
-0.4772711 0.8427418 0.248995
-0.4852055 0.8408302 0.2399587
-0.4930473 0.838795 0.2309271
-0.5007963 0.8366376 0.2219022
-0.5084525 0.8343596 0.2128854
-0.5160158 0.8319623 0.2038785
-0.5234862 0.8294473 0.1948832
-0.5308636 0.826816 0.185901
-0.5381481 0.8240699 0.1769335
-0.5453398 0.8212103 0.1679822
-0.5524388 0.8182389 0.1590487
-0.5594451 0.8151569 0.1501345
-0.5663589 0.8119659 0.1412411
-0.5731803 0.8086672 0.1323698
-0.5799096 0.8052622 0.1235221
-0.5865469 0.8017524 0.1146993
-0.5930925 0.798139 0.1059029
-0.5995466 0.7944236 0.0971341
-0.6059096 0.7906074 0.0883943
-0.6121817 0.7866918 0.07968474
-0.6183632 0.7826781 0.07100669
-0.6244545 0.7785677 0.06236138
-0.630456 0.7743618 0.05375003
-0.6363679 0.7700618 0.04517382
-0.6421908 0.765669 0.03663393
-0.6479249 0.7611845 0.0281315
-0.6535709 0.7566098 0.01966766
-0.659129 0.7519459 0.01124351
-0.6645997 0.7471941 0.002860141
-0.6699836 0.7423557 -0.005481385
-0.675281 0.7374318 -0.01378002
-0.6804926 0.7324236 -0.02203473
-0.6856188 0.7273322 -0.03024451
-0.6906601 0.7221589 -0.03840835
-0.6956171 0.7169046 -0.04652529
-0.7004903 0.7115707 -0.05459436
-0.7052803 0.706158 -0.0626146
-0.7099876 0.7006678 -0.07058509
-0.7146129 0.695101 -0.0785049
-0.7191566 0.6894588 -0.08637312
-0.7236195 0.6837421 -0.09418887
-0.728002 0.677952 -0.1019513
-0.7323049 0.6720895 -0.1096594
-0.7365287 0.6661555 -0.1173125
-0.7406741 0.6601511 -0.1249096
-0.7447417 0.6540771 -0.1324499
-0.7487321 0.6479345 -0.1399326
-0.752646 0.6417242 -0.1473569
-0.756484 0.6354472 -0.1547218
-0.7602468 0.6291042 -0.1620267
-0.763935 0.6226963 -0.1692708
-0.7675494 0.6162242 -0.1764531
-0.7710905 0.6096887 -0.183573
-0.7745591 0.6030908 -0.1906296
-0.7779558 0.5964312 -0.1976221
-0.7812814 0.5897108 -0.2045498
-0.7845364 0.5829302 -0.2114119
-0.7877216 0.5760904 -0.2182075
-0.7908377 0.569192 -0.224936
-0.7938854 0.5622358 -0.2315965
-0.7968653 0.5552225 -0.2381882
-0.7997782 0.5481529 -0.2447104
-0.8026248 0.5410277 -0.2511623
-0.8054058 0.5338475 -0.2575431
-0.8081218 0.5266131 -0.263852
-0.8107736 0.5193251 -0.2700882
-0.8133619 0.5119843 -0.2762509
-0.8158874 0.5045913 -0.2823393
-0.8183508 0.4971466 -0.2883526
-0.8207528 0.4896511 -0.29429
-0.8230942 0.4821053 -0.3001507
-0.8253756 0.4745098 -0.3059339
-0.8275978 0.4668654 -0.3116386
-0.8297615 0.4591725 -0.3172641
-0.8318674 0.4514318 -0.3228096
-0.8339162 0.443644 -0.328274
-0.8359086 0.4358096 -0.3336567
-0.8378454 0.4279292 -0.3389567
-0.8397273 0.4200035 -0.3441731
-0.841555 0.412033 -0.3493051
-0.8433292 0.4040184 -0.3543516
-0.8450506 0.3959602 -0.3593119
-0.84672 0.3878591 -0.3641849
-0.848338 0.3797156 -0.3689697
-0.8499055 0.3715304 -0.3736653
-0.8514231 0.3633041 -0.3782709
-0.8528915 0.3550372 -0.3827854
-0.8543115 0.3467305 -0.3872078
-0.8556837 0.3383846 -0.3915371
-0.8570089 0.33 -0.3957724
-0.8582878 0.3215775 -0.3999125
-0.8595211 0.3131176 -0.4039565
-0.8607095 0.3046212 -0.4079033
-0.8618537 0.2960888 -0.4117519
-0.8629544 0.2875212 -0.4155012
-0.8640124 0.278919 -0.4191501
-0.8650282 0.270283 -0.4226976
-0.8660027 0.261614 -0.4261426
-0.8669364 0.2529127 -0.429484
-0.86783 0.2441798 -0.4327208
-0.8686843 0.2354163 -0.4358517
-0.8694999 0.2266228 -0.4388759
-0.8702773 0.2178004 -0.4417922
-0.8710174 0.2089498 -0.4445995
-0.8717206 0.2000719 -0.4472967
-0.8723877 0.1911676 -0.4498829
-0.8730192 0.182238 -0.4523569
-0.8736157 0.173284 -0.4547178
-0.8741778 0.1643065 -0.4569646
-0.874706 0.1553066 -0.4590962
-0.8752009 0.1462853 -0.4611117
-0.875663 0.1372438 -0.4630102
-0.8760928 0.1281832 -0.4647908
-0.8764907 0.1191045 -0.4664527
-0.8768573 0.1100089 -0.467995
-0.8771929 0.1008977 -0.4694169
-0.877498 0.09177199 -0.4707178
-0.8777728 0.08263305 -0.4718969
-0.8780178 0.07348212 -0.4729536
-0.8782332 0.0643205 -0.4738874
-0.8784194 0.05514946 -0.4746978
-0.8785764 0.04597033 -0.4753842
-0.8787047 0.03678443 -0.4759464
-0.8788043 0.02759309 -0.476384
-0.8788753 0.01839766 -0.4766967
-0.8789179 0.009199516 -0.4768844
-0.8789321 2.36662e-09 -0.476947
-0.8789179 -0.009199511 -0.4768844
-0.8788753 -0.01839766 -0.4766967
-0.8788043 -0.02759308 -0.476384
-0.8787047 -0.03678442 -0.4759464
-0.8785764 -0.04597033 -0.4753842
-0.8784194 -0.05514946 -0.4746978
-0.8782332 -0.06432049 -0.4738874
-0.8780178 -0.07348212 -0.4729536
-0.8777728 -0.08263304 -0.4718969
-0.877498 -0.09177198 -0.4707178
-0.8771929 -0.1008977 -0.4694169
-0.8768573 -0.1100089 -0.467995
-0.8764907 -0.1191045 -0.4664527
-0.8760928 -0.1281832 -0.4647908
-0.875663 -0.1372438 -0.4630102
-0.8752009 -0.1462853 -0.4611117
-0.874706 -0.1553066 -0.4590962
-0.8741778 -0.1643065 -0.4569646
-0.8736157 -0.1732839 -0.4547178
-0.8730192 -0.182238 -0.4523569
-0.8723877 -0.1911676 -0.4498829
-0.8717206 -0.2000719 -0.4472967
-0.8710174 -0.2089498 -0.4445995
-0.8702773 -0.2178004 -0.4417922
-0.8694999 -0.2266228 -0.4388759
-0.8686843 -0.2354163 -0.4358517
-0.86783 -0.2441798 -0.4327208
-0.8669364 -0.2529127 -0.429484
-0.8660027 -0.261614 -0.4261426
-0.8650282 -0.270283 -0.4226976
-0.8640124 -0.278919 -0.4191501
-0.8629544 -0.2875212 -0.4155012
-0.8618537 -0.2960888 -0.4117519
-0.8607095 -0.3046212 -0.4079033
-0.8595211 -0.3131176 -0.4039565
-0.8582878 -0.3215775 -0.3999125
-0.8570089 -0.33 -0.3957724
-0.8556837 -0.3383846 -0.3915371
-0.8543115 -0.3467305 -0.3872078
-0.8528915 -0.3550372 -0.3827854
-0.8514231 -0.3633041 -0.3782709
-0.8499055 -0.3715304 -0.3736653
-0.848338 -0.3797156 -0.3689697
-0.84672 -0.3878591 -0.3641849
-0.8450506 -0.3959602 -0.3593119
-0.8433292 -0.4040184 -0.3543516
-0.841555 -0.412033 -0.3493051
-0.8397273 -0.4200035 -0.3441731
-0.8378454 -0.4279292 -0.3389567
-0.8359086 -0.4358096 -0.3336567
-0.8339162 -0.443644 -0.328274