# vtk DataFile Version 2.0
Written badly by Kevin Korner
ASCII
DATASET POLYDATA
POINTS 350 FLOAT
0 0 0
0.00286533 0 0
0.00572896 -5.233385e-05 8.362669e-05
0.008587424 -0.0001548521 0.0002533054
0.01143715 -0.0003051901 0.0005112757
0.0142745 -0.0005007715 0.0008595727
0.01709576 -0.0007388128 0.001300008
0.01989715 -0.00101633 0.001834155
0.02267487 -0.001330149 0.002463328
0.02542513 -0.001676912 0.003188571
0.0281441 -0.002053094 0.004010645
0.030828 -0.002455015 0.004930014
0.0334731 -0.002878853 0.005946838
0.03607572 -0.003320668 0.007060964
0.03863228 -0.00377641 0.008271923
0.04113929 -0.004241948 0.009578925
0.04359341 -0.004713086 0.01098086
0.04599143 -0.005185585 0.01247631
0.0483303 -0.005655186 0.01406354
0.05060716 -0.006117628 0.0157405
0.05281932 -0.006568676 0.01750486
0.05496434 -0.007004141 0.01935401
0.05703997 -0.007419899 0.02128508
0.0590442 -0.007811915 0.02329493
0.06097526 -0.008176263 0.02538021
0.06283163 -0.008509141 0.02753734
0.06461202 -0.008806896 0.02976257
0.06631542 -0.009066032 0.03205198
0.06794105 -0.009283231 0.0344015
0.0694884 -0.009455363 0.03680695
0.0709572 -0.009579498 0.03926405
0.07234741 -0.009652912 0.04176846
0.07365924 -0.009673102 0.04431577
0.07489312 -0.009637781 0.04690158
0.0760497 -0.009544893 0.04952146
0.07712984 -0.009392603 0.05217103
0.07813458 -0.009179308 0.05484594
0.07906514 -0.008903627 0.05754189
0.07992292 -0.008564404 0.06025469
0.08070947 -0.008160697 0.06298021
0.08142647 -0.007691779 0.06571446
0.08207574 -0.007157126 0.06845357
0.08265917 -0.006556411 0.0711938
0.08317879 -0.005889495 0.07393156
0.08363669 -0.005156417 0.07666342
0.08403503 -0.004357385 0.0793861
0.08437601 -0.003492762 0.0820965
0.08466189 -0.002563061 0.08479169
0.08489494 -0.001568927 0.08746891
0.08507746 -0.0005111324 0.09012557
0.08521176 0.0006094389 0.09275928
0.08530012 0.0017918 0.09536779
0.08534484 0.003034873 0.09794904
0.08534817 0.004337498 0.1005012
0.08531236 0.005698443 0.1030224
0.08523959 0.007116419 0.1055112
0.08513202 0.008590079 0.1079662
0.08499176 0.01011804 0.110386
0.08482086 0.01169887 0.1127697
0.08462133 0.01333113 0.1151162
0.08439511 0.01501335 0.1174247
0.08414406 0.01674404 0.1196944
0.08387001 0.01852172 0.1219249
0.08357471 0.02034489 0.1241155
0.08325983 0.02221206 0.126266
0.08292699 0.02412177 0.1283761
0.08257774 0.02607254 0.1304455
0.08221356 0.02806292 0.1324743
0.08183585 0.03009149 0.1344624
0.08144596 0.03215684 0.1364098
0.08104516 0.03425758 0.1383167
0.08063469 0.03639238 0.1401833
0.08021567 0.03855991 0.1420099
0.07978921 0.04075887 0.1437967
0.07935633 0.04298801 0.1455442
0.07891799 0.0452461 0.1472527
0.07847512 0.04753195 0.1489227
0.07802858 0.04984441 0.1505546
0.07757916 0.05218236 0.152149
0.07712762 0.05454471 0.1537065
0.07667467 0.05693042 0.1552274
0.07622097 0.05933847 0.1567125
0.07576713 0.06176788 0.1581624
0.07531372 0.06421772 0.1595776
0.07486127 0.06668707 0.1609588
0.07441027 0.06917506 0.1623066
0.07396119 0.07168085 0.1636217
0.07351443 0.07420363 0.1649047
0.07307038 0.07674262 0.1661563
0.07262939 0.07929708 0.1673771
0.07219179 0.0818663 0.1685678
0.07175787 0.08444959 0.169729
0.0713279 0.08704629 0.1708615
0.07090213 0.08965577 0.1719657
0.07048077 0.09227744 0.1730425
0.07006401 0.09491072 0.1740924
0.06965204 0.09755506 0.175116
0.069245 0.1002099 0.1761141
0.06884305 0.1028748 0.1770871
0.06844629 0.1055493 0.1780358
0.06805483 0.1082329 0.1789607
0.06766876 0.1109251 0.1798623
0.06728816 0.1136255 0.1807414
0.06691308 0.1163338 0.1815985
0.06654358 0.1190496 0.182434
0.0661797 0.1217725 0.1832486
0.06582146 0.1245022 0.1840428
0.0654689 0.1272383 0.1848171
0.065122 0.1299805 0.1855721
0.06478079 0.1327286 0.1863081
0.06444526 0.1354822 0.1870258
0.06411539 0.1382411 0.1877256
0.06379118 0.1410051 0.1884079
0.06347259 0.1437738 0.1890732
0.06315962 0.1465471 0.1897219
0.06285222 0.1493248 0.1903545
0.06255037 0.1521066 0.1909713
0.06225403 0.1548924 0.1915728
0.06196317 0.157682 0.1921593
0.06167774 0.1604751 0.1927311
0.06139771 0.1632716 0.1932888
0.06112304 0.1660715 0.1938325
0.06085368 0.1688744 0.1943626
0.06058959 0.1716804 0.1948794
0.06033073 0.1744891 0.1953833
0.06007705 0.1773006 0.1958745
0.05982853 0.1801147 0.1963533
0.05958512 0.1829313 0.1968199
0.05934678 0.1857503 0.1972746
0.05911347 0.1885715 0.1977177
0.05888517 0.1913949 0.1981493
0.05866184 0.1942204 0.1985697
0.05844344 0.1970479 0.1989791
0.05822995 0.1998774 0.1993776
0.05802135 0.2027087 0.1997655
0.05781761 0.2055417 0.2001428
0.05761871 0.2083765 0.2005099
0.05742463 0.2112129 0.2008667
0.05723537 0.2140508 0.2012134
0.0570509 0.2168903 0.2015503
0.05687121 0.2197312 0.2018773
0.05669631 0.2225736 0.2021945
0.05652619 0.2254173 0.2025022
0.05636084 0.2282622 0.2028002
0.05620027 0.2311085 0.2030889
0.05604449 0.2339559 0.2033681
0.05589351 0.2368045 0.203638
0.05574732 0.2396542 0.2038986
0.05560596 0.242505 0.2041499
0.05546943 0.2453568 0.2043921
0.05533776 0.2482096 0.204625
0.05521096 0.2510634 0.2048489
0.05508906 0.253918 0.2050635
0.05497209 0.2567736 0.2052691
0.05486008 0.25963 0.2054655
0.05475305 0.2624872 0.2056528
0.05465104 0.2653451 0.205831
0.05455408 0.2682038 0.206
0.05446221 0.2710632 0.2061599
0.05437546 0.2739233 0.2063106
0.05429388 0.2767839 0.2064521
0.05421751 0.2796452 0.2065844
0.05414637 0.282507 0.2067075
0.05408052 0.2853693 0.2068212
0.05401998 0.2882321 0.2069256
0.05396481 0.2910953 0.2070207
0.05391502 0.2939589 0.2071064
0.05387067 0.2968229 0.2071827
0.05383178 0.2996872 0.2072495
0.05379839 0.3025518 0.2073069
0.05377052 0.3054165 0.2073547
0.05374819 0.3082815 0.207393
0.05373142 0.3111467 0.2074217
0.05372024 0.3140119 0.2074409
0.05371464 0.3168772 0.2074505
0.05371464 0.3197426 0.2074505
0.05372024 0.3226079 0.2074409
0.05373142 0.3254731 0.2074217
0.05374819 0.3283382 0.207393
0.05377052 0.3312032 0.2073547
0.05379839 0.334068 0.2073069
0.05383178 0.3369326 0.2072495
0.05387067 0.3397969 0.2071827
0.05391502 0.3426608 0.2071064
0.05396481 0.3455245 0.2070207
0.05401998 0.3483877 0.2069256
0.05408052 0.3512505 0.2068212
0.05414637 0.3541128 0.2067075
0.05421751 0.3569746 0.2065844
0.05429389 0.3598358 0.2064521
0.05437546 0.3626965 0.2063106
0.05446221 0.3655565 0.2061599
0.05455408 0.3684159 0.206
0.05465104 0.3712746 0.205831
0.05475305 0.3741326 0.2056528
0.05486008 0.3769898 0.2054655
0.05497209 0.3798462 0.2052691
0.05508906 0.3827017 0.2050635
0.05521096 0.3855564 0.2048489
0.05533776 0.3884102 0.204625
0.05546943 0.391263 0.2043921
0.05560596 0.3941148 0.2041499
0.05574732 0.3969656 0.2038986
0.05589351 0.3998153 0.203638
0.05604449 0.4026639 0.2033681
0.05620027 0.4055113 0.2030889
0.05636084 0.4083575 0.2028002
0.05652619 0.4112025 0.2025022
0.05669631 0.4140462 0.2021945
0.05687121 0.4168885 0.2018772
0.0570509 0.4197295 0.2015503
0.05723537 0.4225689 0.2012134
0.05742463 0.4254069 0.2008667
0.05761871 0.4282433 0.2005099
0.05781761 0.4310781 0.2001428
0.05802135 0.4339111 0.1997655
0.05822995 0.4367424 0.1993776
0.05844344 0.4395718 0.1989791
0.05866184 0.4423994 0.1985697
0.05888517 0.4452249 0.1981493
0.05911347 0.4480483 0.1977177
0.05934678 0.4508695 0.1972746
0.05958512 0.4536885 0.1968199
0.05982853 0.4565051 0.1963533
0.06007705 0.4593191 0.1958745
0.06033073 0.4621306 0.1953833
0.06058959 0.4649394 0.1948794
0.06085368 0.4677453 0.1943626
0.06112304 0.4705483 0.1938325
0.06139771 0.4733481 0.1932888
0.06167774 0.4761447 0.1927311
0.06196317 0.4789378 0.1921593
0.06225403 0.4817274 0.1915728
0.06255037 0.4845131 0.1909713
0.06285222 0.487295 0.1903545
0.06315962 0.4900726 0.1897219
0.06347259 0.492846 0.1890732
0.06379118 0.4956147 0.1884079
0.06411539 0.4983787 0.1877256
0.06444526 0.5011376 0.1870258
0.06478079 0.5038912 0.1863081
0.065122 0.5066393 0.1855721
0.0654689 0.5093815 0.1848171
0.06582147 0.5121176 0.1840428
0.0661797 0.5148473 0.1832486
0.06654358 0.5175702 0.182434
0.06691308 0.5202859 0.1815985
0.06728816 0.5229942 0.1807414
0.06766876 0.5256947 0.1798623
0.06805483 0.5283869 0.1789607
0.06844629 0.5310705 0.1780358
0.06884305 0.5337449 0.1770871
0.069245 0.5364098 0.1761141
0.06965204 0.5390647 0.175116
0.07006401 0.541709 0.1740924
0.07048077 0.5443423 0.1730425
0.07090213 0.546964 0.1719657
0.0713279 0.5495735 0.1708615
0.07175787 0.5521702 0.169729
0.07219179 0.5547535 0.1685678
0.07262939 0.5573227 0.1673771
0.07307038 0.5598772 0.1661563
0.07351443 0.5624161 0.1649047
0.07396119 0.5649389 0.1636217
0.07441027 0.5674447 0.1623066
0.07486127 0.5699327 0.1609588
0.07531372 0.5724021 0.1595776
0.07576713 0.5748519 0.1581624
0.07622097 0.5772813 0.1567125
0.07667467 0.5796894 0.1552274
0.07712762 0.5820751 0.1537065
0.07757916 0.5844374 0.152149
0.07802858 0.5867754 0.1505546
0.07847512 0.5890878 0.1489227
0.07891799 0.5913737 0.1472527
0.07935633 0.5936318 0.1455442
0.07978921 0.5958609 0.1437967
0.08021567 0.5980599 0.1420099
0.08063469 0.6002274 0.1401833
0.08104516 0.6023622 0.1383167
0.08144596 0.6044629 0.1364098
0.08183585 0.6065283 0.1344624
0.08221356 0.6085569 0.1324743
0.08257774 0.6105472 0.1304455
0.08292699 0.612498 0.1283761
0.08325983 0.6144077 0.126266
0.08357471 0.6162749 0.1241155
0.08387001 0.6180981 0.1219249
0.08414406 0.6198757 0.1196944
0.08439511 0.6216064 0.1174247
0.08462133 0.6232886 0.1151162
0.08482086 0.6249209 0.1127697
0.08499176 0.6265017 0.110386
0.08513202 0.6280297 0.1079662
0.08523959 0.6295034 0.1055112
0.08531236 0.6309213 0.1030224
0.08534817 0.6322823 0.1005012
0.08534484 0.6335849 0.09794904
0.08530012 0.634828 0.09536779
0.08521176 0.6360103 0.09275928
0.08507746 0.6371309 0.09012557
0.08489494 0.6381887 0.08746891
0.08466189 0.6391828 0.08479169
0.08437601 0.6401125 0.0820965
0.08403503 0.6409772 0.0793861
0.08363669 0.6417762 0.07666342
0.08317879 0.6425093 0.07393156
0.08265917 0.6431762 0.0711938
0.08207574 0.6437769 0.06845357
0.08142647 0.6443116 0.06571446
0.08070947 0.6447805 0.06298021
0.07992292 0.6451842 0.06025469
0.07906514 0.6455234 0.05754189
0.07813458 0.6457991 0.05484594
0.07712984 0.6460124 0.05217103
0.0760497 0.6461647 0.04952146
0.07489312 0.6462576 0.04690158
0.07365924 0.6462929 0.04431577
0.07234741 0.6462727 0.04176846
0.0709572 0.6461993 0.03926405
0.0694884 0.6460751 0.03680695
0.06794105 0.645903 0.0344015
0.06631542 0.6456858 0.03205198
0.06461202 0.6454267 0.02976257
0.06283163 0.6451289 0.02753734
0.06097526 0.644796 0.02538021
0.0590442 0.6444317 0.02329493
0.05703997 0.6440397 0.02128508
0.05496434 0.6436239 0.01935401
0.05281932 0.6431884 0.01750486
0.05060716 0.6427374 0.0157405
0.0483303 0.642275 0.01406354
0.04599143 0.6418054 0.01247631
0.04359341 0.6413329 0.01098086
0.04113929 0.6408617 0.009578925
0.03863228 0.6403962 0.008271923
0.03607572 0.6399404 0.007060964
0.0334731 0.6394986 0.005946838
0.030828 0.6390748 0.004930014
0.0281441 0.6386729 0.004010645
0.02542513 0.6382967 0.003188571
0.02267487 0.6379499 0.002463328
0.01989715 0.6376361 0.001834155
0.01709576 0.6373586 0.001300008
0.0142745 0.6371205 0.0008595727
0.01143715 0.636925 0.0005112757
0.008587424 0.6367746 0.0002533054
0.00572896 0.6366721 8.362669e-05
0.00286533 0.6366198 0
0 0.6366198 0

LINES 349 1047
2 0 1
2 1 2
2 2 3
2 3 4
2 4 5
2 5 6
2 6 7
2 7 8
2 8 9
2 9 10
2 10 11
2 11 12
2 12 13
2 13 14
2 14 15
2 15 16
2 16 17
2 17 18
2 18 19
2 19 20
2 20 21
2 21 22
2 22 23
2 23 24
2 24 25
2 25 26
2 26 27
2 27 28
2 28 29
2 29 30
2 30 31
2 31 32
2 32 33
2 33 34
2 34 35
2 35 36
2 36 37
2 37 38
2 38 39
2 39 40
2 40 41
2 41 42
2 42 43
2 43 44
2 44 45
2 45 46
2 46 47
2 47 48
2 48 49
2 49 50
2 50 51
2 51 52
2 52 53
2 53 54
2 54 55
2 55 56
2 56 57
2 57 58
2 58 59
2 59 60
2 60 61
2 61 62
2 62 63
2 63 64
2 64 65
2 65 66
2 66 67
2 67 68
2 68 69
2 69 70
2 70 71
2 71 72
2 72 73
2 73 74
2 74 75
2 75 76
2 76 77
2 77 78
2 78 79
2 79 80
2 80 81
2 81 82
2 82 83
2 83 84
2 84 85
2 85 86
2 86 87
2 87 88
2 88 89
2 89 90
2 90 91
2 91 92
2 92 93
2 93 94
2 94 95
2 95 96
2 96 97
2 97 98
2 98 99
2 99 100
2 100 101
2 101 102
2 102 103
2 103 104
2 104 105
2 105 106
2 106 107
2 107 108
2 108 109
2 109 110
2 110 111
2 111 112
2 112 113
2 113 114
2 114 115
2 115 116
2 116 117
2 117 118
2 118 119
2 119 120
2 120 121
2 121 122
2 122 123
2 123 124
2 124 125
2 125 126
2 126 127
2 127 128
2 128 129
2 129 130
2 130 131
2 131 132
2 132 133
2 133 134
2 134 135
2 135 136
2 136 137
2 137 138
2 138 139
2 139 140
2 140 141
2 141 142
2 142 143
2 143 144
2 144 145
2 145 146
2 146 147
2 147 148
2 148 149
2 149 150
2 150 151
2 151 152
2 152 153
2 153 154
2 154 155
2 155 156
2 156 157
2 157 158
2 158 159
2 159 160
2 160 161
2 161 162
2 162 163
2 163 164
2 164 165
2 165 166
2 166 167
2 167 168
2 168 169
2 169 170
2 170 171
2 171 172
2 172 173
2 173 174
2 174 175
2 175 176
2 176 177
2 177 178
2 178 179
2 179 180
2 180 181
2 181 182
2 182 183
2 183 184
2 184 185
2 185 186
2 186 187
2 187 188
2 188 189
2 189 190
2 190 191
2 191 192
2 192 193
2 193 194
2 194 195
2 195 196
2 196 197
2 197 198
2 198 199
2 199 200
2 200 201
2 201 202
2 202 203
2 203 204
2 204 205
2 205 206
2 206 207
2 207 208
2 208 209
2 209 210
2 210 211
2 211 212
2 212 213
2 213 214
2 214 215
2 215 216
2 216 217
2 217 218
2 218 219
2 219 220
2 220 221
2 221 222
2 222 223
2 223 224
2 224 225
2 225 226
2 226 227
2 227 228
2 228 229
2 229 230
2 230 231
2 231 232
2 232 233
2 233 234
2 234 235
2 235 236
2 236 237
2 237 238
2 238 239
2 239 240
2 240 241
2 241 242
2 242 243
2 243 244
2 244 245
2 245 246
2 246 247
2 247 248
2 248 249
2 249 250
2 250 251
2 251 252
2 252 253
2 253 254
2 254 255
2 255 256
2 256 257
2 257 258
2 258 259
2 259 260
2 260 261
2 261 262
2 262 263
2 263 264
2 264 265
2 265 266
2 266 267
2 267 268
2 268 269
2 269 270
2 270 271
2 271 272
2 272 273
2 273 274
2 274 275
2 275 276
2 276 277
2 277 278
2 278 279
2 279 280
2 280 281
2 281 282
2 282 283
2 283 284
2 284 285
2 285 286
2 286 287
2 287 288
2 288 289
2 289 290
2 290 291
2 291 292
2 292 293
2 293 294
2 294 295
2 295 296
2 296 297
2 297 298
2 298 299
2 299 300
2 300 301
2 301 302
2 302 303
2 303 304
2 304 305
2 305 306
2 306 307
2 307 308
2 308 309
2 309 310
2 310 311
2 311 312
2 312 313
2 313 314
2 314 315
2 315 316
2 316 317
2 317 318
2 318 319
2 319 320
2 320 321
2 321 322
2 322 323
2 323 324
2 324 325
2 325 326
2 326 327
2 327 328
2 328 329
2 329 330
2 330 331
2 331 332
2 332 333
2 333 334
2 334 335
2 335 336
2 336 337
2 337 338
2 338 339
2 339 340
2 340 341
2 341 342
2 342 343
2 343 344
2 344 345
2 345 346
2 346 347
2 347 348
2 348 349


POINT_DATA 350
SCALARS a FLOAT 1
LOOKUP_TABLE default
0.0005894628
0.0005894628
0.0005894628
0.0005894628
0.0005894628
0.0005894628
0.0005894628
0.0005894628
0.0005894628
0.0005894628
0.0005894628
0.0005894628
0.0005894628
0.0005894628
0.0005894628
0.0005894628
0.0005894628
0.0005894628
0.0005894628
0.0005894628
0.0005894628
0.0005894628
0.0005894628
0.0005894628
0.0005894628
0.0005894628
0.0005894628
0.0005894628
0.0005894628
0.0005894628
0.0005894628
0.0005894628
0.0005894628
0.0005894628
0.0005894628
0.0005894628
0.0005894628
0.0005894628
0.0005894628
0.0005894628
0.0005894628
0.0005894628
0.0005894628
0.0005894628
0.0005894628
0.0005894628
0.0005894628
0.0005894628
0.0005894628
0.0005894628
0.0005894628
0.0005894628
0.0005894628
0.0005894628
0.0005894628
0.0005894628
0.0005894628
0.0005894628
0.0005894628
0.0005894628
0.0005894628
0.0005894628
0.0005894628
0.0005894628
0.0005894628
0.0005894628
0.0005894628
0.0005894628
0.0005894628
0.0005894628
0.0005894628
0.0005894628
0.0005894628
0.0005894628
0.0005894628
0.0005894628
0.0005894628
0.0005894628
0.0005894628
0.0005894628
0.0005894628
0.0005894628
0.0005894628
0.0005894628
0.0005894628
0.0005894628
0.0005894628
0.0005894628
0.0005894628
0.0005894628
0.0005894628
0.0005894628
0.0005894628
0.0005894628
0.0005894628
0.0005894628
0.0005894628
0.0005894628
0.0005894628
0.0005894628
0.0005894628
0.0005894628
0.0005894628
0.0005894628
0.0005894628
0.0005894628
0.0005894628
0.0005894628
0.0005894628
0.0005894628
0.0005894628
0.0005894628
0.0005894628
0.0005894628
0.0005894628
0.0005894628
0.0005894628
0.0005894628
0.0005894628
0.0005894628
0.0005894628
0.0005894628
0.0005894628
0.0005894628
0.0005894628
0.0005894628
0.0005894628
0.0005894628
0.0005894628
0.0005894628
0.0005894628
0.0005894628
0.0005894628
0.0005894628
0.0005894628
0.0005894628
0.0005894628
0.0005894628
0.0005894628
0.0005894628
0.0005894628
0.0005894628
0.0005894628
0.0005894628
0.0005894628
0.0005894628
0.0005894628
0.0005894628
0.0005894628
0.0005894628
0.0005894628
0.0005894628
0.0005894628
0.0005894628
0.0005894628
0.0005894628
0.0005894628
0.0005894628
0.0005894628
0.0005894628
0.0005894628
0.0005894628
0.0005894628
0.0005894628
0.0005894628
0.0005894628
0.0005894628
0.0005894628
0.0005894628
0.0005894628
0.0005894628
0.0005894628
0.0005894628
0.0005894628
0.0005894628
0.0005894628
0.0005894628
0.0005894628
0.0005894628
0.0005894628
0.0005894628
0.0005894628
0.0005894628
0.0005894628
0.0005894628
0.0005894628
0.0005894628
0.0005894628
0.0005894628
0.0005894628
0.0005894628
0.0005894628
0.0005894628
0.0005894628
0.0005894628
0.0005894628
0.0005894628
0.0005894628
0.0005894628
0.0005894628
0.0005894628
0.0005894628
0.0005894628
0.0005894628
0.0005894628
0.0005894628
0.0005894628
0.0005894628
0.0005894628
0.0005894628
0.0005894628
0.0005894628
0.0005894628
0.0005894628
0.0005894628
0.0005894628
0.0005894628
0.0005894628
0.0005894628
0.0005894628
0.0005894628
0.0005894628
0.0005894628
0.0005894628
0.0005894628
0.0005894628
0.0005894628
0.0005894628
0.0005894628
0.0005894628
0.0005894628
0.0005894628
0.0005894628
0.0005894628
0.0005894628
0.0005894628
0.0005894628
0.0005894628
0.0005894628
0.0005894628
0.0005894628
0.0005894628
0.0005894628
0.0005894628
0.0005894628
0.0005894628
0.0005894628
0.0005894628
0.0005894628
0.0005894628
0.0005894628
0.0005894628
0.0005894628
0.0005894628
0.0005894628
0.0005894628
0.0005894628
0.0005894628
0.0005894628
0.0005894628
0.0005894628
0.0005894628
0.0005894628
0.0005894628
0.0005894628
0.0005894628
0.0005894628
0.0005894628
0.0005894628
0.0005894628
0.0005894628
0.0005894628
0.0005894628
0.0005894628
0.0005894628
0.0005894628
0.0005894628
0.0005894628
0.0005894628
0.0005894628
0.0005894628
0.0005894628
0.0005894628
0.0005894628
0.0005894628
0.0005894628
0.0005894628
0.0005894628
0.0005894628
0.0005894628
0.0005894628
0.0005894628
0.0005894628
0.0005894628
0.0005894628
0.0005894628
0.0005894628
0.0005894628
0.0005894628
0.0005894628
0.0005894628
0.0005894628
0.0005894628
0.0005894628
0.0005894628
0.0005894628
0.0005894628
0.0005894628
0.0005894628
0.0005894628
0.0005894628
0.0005894628
0.0005894628
0.0005894628
0.0005894628
0.0005894628
0.0005894628
0.0005894628
0.0005894628
0.0005894628
0.0005894628
0.0005894628
0.0005894628
0.0005894628
0.0005894628
0.0005894628
0.0005894628
0.0005894628
0.0005894628
0.0005894628
0.0005894628
0.0005894628
0.0005894628
0.0005894628
0.0005894628
0.0005894628
0.0005894628
0.0005894628
0.0005894628
0.0005894628
0.0005894628
0.0005894628
0.0005894628
0.0005894628
0.0005894628
0.0005894628
0.0005894628
0.0005894628
0.0005894628
0.0005894628


SCALARS b FLOAT 1
LOOKUP_TABLE default
0.04420971
0.04420971
0.04420971
0.04420971
0.04420971
0.04420971
0.04420971
0.04420971
0.04420971
0.04420971
0.04420971
0.04420971
0.04420971
0.04420971
0.04420971
0.04420971
0.04420971
0.04420971
0.04420971
0.04420971
0.04420971
0.04420971
0.04420971
0.04420971
0.04420971
0.04420971
0.04420971
0.04420971
0.04420971
0.04420971
0.04420971
0.04420971
0.04420971
0.04420971
0.04420971
0.04420971
0.04420971
0.04420971
0.04420971
0.04420971
0.04420971
0.04420971
0.04420971
0.04420971
0.04420971
0.04420971
0.04420971
0.04420971
0.04420971
0.04420971
0.04420971
0.04420971
0.04420971
0.04420971
0.04420971
0.04420971
0.04420971
0.04420971
0.04420971
0.04420971
0.04420971
0.04420971
0.04420971
0.04420971
0.04420971
0.04420971
0.04420971
0.04420971
0.04420971
0.04420971
0.04420971
0.04420971
0.04420971
0.04420971
0.04420971
0.04420971
0.04420971
0.04420971
0.04420971
0.04420971
0.04420971
0.04420971
0.04420971
0.04420971
0.04420971
0.04420971
0.04420971
0.04420971
0.04420971
0.04420971
0.04420971
0.04420971
0.04420971
0.04420971
0.04420971
0.04420971
0.04420971
0.04420971
0.04420971
0.04420971
0.04420971
0.04420971
0.04420971
0.04420971
0.04420971
0.04420971
0.04420971
0.04420971
0.04420971
0.04420971
0.04420971
0.04420971
0.04420971
0.04420971
0.04420971
0.04420971
0.04420971
0.04420971
0.04420971
0.04420971
0.04420971
0.04420971
0.04420971
0.04420971
0.04420971
0.04420971
0.04420971
0.04420971
0.04420971
0.04420971
0.04420971
0.04420971
0.04420971
0.04420971
0.04420971
0.04420971
0.04420971
0.04420971
0.04420971
0.04420971
0.04420971
0.04420971
0.04420971
0.04420971
0.04420971
0.04420971
0.04420971
0.04420971
0.04420971
0.04420971
0.04420971
0.04420971
0.04420971
0.04420971
0.04420971
0.04420971
0.04420971
0.04420971
0.04420971
0.04420971
0.04420971
0.04420971
0.04420971
0.04420971
0.04420971
0.04420971
0.04420971
0.04420971
0.04420971
0.04420971
0.04420971
0.04420971
0.04420971
0.04420971
0.04420971
0.04420971
0.04420971
0.04420971
0.04420971
0.04420971
0.04420971
0.04420971
0.04420971
0.04420971
0.04420971
0.04420971
0.04420971
0.04420971
0.04420971
0.04420971
0.04420971
0.04420971
0.04420971
0.04420971
0.04420971
0.04420971
0.04420971
0.04420971
0.04420971
0.04420971
0.04420971
0.04420971
0.04420971
0.04420971
0.04420971
0.04420971
0.04420971
0.04420971
0.04420971
0.04420971
0.04420971
0.04420971
0.04420971
0.04420971
0.04420971
0.04420971
0.04420971
0.04420971
0.04420971
0.04420971
0.04420971
0.04420971
0.04420971
0.04420971
0.04420971
0.04420971
0.04420971
0.04420971
0.04420971
0.04420971
0.04420971
0.04420971
0.04420971
0.04420971
0.04420971
0.04420971
0.04420971
0.04420971
0.04420971
0.04420971
0.04420971
0.04420971
0.04420971
0.04420971
0.04420971
0.04420971
0.04420971
0.04420971
0.04420971
0.04420971
0.04420971
0.04420971
0.04420971
0.04420971
0.04420971
0.04420971
0.04420971
0.04420971
0.04420971
0.04420971
0.04420971
0.04420971
0.04420971
0.04420971
0.04420971
0.04420971
0.04420971
0.04420971
0.04420971
0.04420971
0.04420971
0.04420971
0.04420971
0.04420971
0.04420971
0.04420971
0.04420971
0.04420971
0.04420971
0.04420971
0.04420971
0.04420971
0.04420971
0.04420971
0.04420971
0.04420971
0.04420971
0.04420971
0.04420971
0.04420971
0.04420971
0.04420971
0.04420971
0.04420971
0.04420971
0.04420971
0.04420971
0.04420971
0.04420971
0.04420971
0.04420971
0.04420971
0.04420971
0.04420971
0.04420971
0.04420971
0.04420971
0.04420971
0.04420971
0.04420971
0.04420971
0.04420971
0.04420971
0.04420971
0.04420971
0.04420971
0.04420971
0.04420971
0.04420971
0.04420971
0.04420971
0.04420971
0.04420971
0.04420971
0.04420971
0.04420971
0.04420971
0.04420971
0.04420971
0.04420971
0.04420971
0.04420971
0.04420971
0.04420971
0.04420971
0.04420971
0.04420971
0.04420971
0.04420971
0.04420971
0.04420971
0.04420971
0.04420971
0.04420971
0.04420971
0.04420971
0.04420971
0.04420971
0.04420971
0.04420971


VECTORS d1 FLOAT
0 -0.5434968 0.8394112
-0.03442542 -0.5168756 0.855368
-0.06915353 -0.4888987 0.8695952
-0.1040894 -0.4596086 0.8820008
-0.1391333 -0.4290563 0.892498
-0.1741813 -0.3973008 0.9010066
-0.2091259 -0.3644095 0.9074536
-0.2438565 -0.3304577 0.911774
-0.2782604 -0.2955282 0.9139115
-0.3122235 -0.2597113 0.9138197
-0.3456312 -0.2231041 0.9114623
-0.3783692 -0.1858098 0.9068139
-0.4103242 -0.1479371 0.8998603
-0.4413855 -0.1095999 0.8905991
-0.471445 -0.07091578 0.8790395
-0.500399 -0.03200561 0.8652031
-0.5281483 0.007007498 0.8491232
-0.5545996 0.04599917 0.8308449
-0.5796659 0.08484474 0.8104251
-0.6032675 0.1234202 0.7879314
-0.6253322 0.1616033 0.7634422
-0.6457964 0.1992743 0.737046
-0.6646052 0.2363171 0.70884
-0.6817127 0.2726201 0.6789301
-0.6970826 0.3080768 0.6474292
-0.7106877 0.3425869 0.6144569
-0.7225107 0.3760565 0.5801378
-0.7325434 0.4083994 0.5446008
-0.7407872 0.4395367 0.5079781
-0.7472523 0.4693979 0.4704037
-0.7519575 0.4979207 0.4320126
-0.7549299 0.5250516 0.3929398
-0.7562043 0.5507456 0.353319
-0.7558225 0.5749667 0.3132821
-0.7538331 0.5976871 0.2729577
-0.7502903 0.6188875 0.2324709
-0.7452537 0.638557 0.1919424
-0.7387874 0.6566923 0.1514875
-0.7309593 0.6732975 0.111216
-0.7218404 0.6883839 0.07123155
-0.7115045 0.7019693 0.03163133
-0.7000268 0.7140773 -0.007494327
-0.6874839 0.7247373 -0.04606207
-0.6739532 0.7339835 -0.08399563
-0.6595119 0.7418547 -0.1212259
-0.6442369 0.7483933 -0.1576909
-0.628204 0.7536452 -0.1933356
-0.6114881 0.757659 -0.228112
-0.5941619 0.7604859 -0.2619787
-0.5762964 0.7621785 -0.2949008
-0.5579601 0.7627909 -0.3268495
-0.539219 0.7623783 -0.357802
-0.5201364 0.7609961 -0.3877409
-0.5007727 0.7587002 -0.4166542
-0.4811851 0.755546 -0.4445347
-0.461428 0.7515886 -0.4713796
-0.4415523 0.7468824 -0.4971904
-0.4216061 0.7414805 -0.5219723
-0.4016339 0.7354351 -0.5457339
-0.3816775 0.7287969 -0.5684869
-0.3617752 0.7216151 -0.590246
-0.3419627 0.7139372 -0.6110279
-0.3222724 0.705809 -0.6308519
-0.3027341 0.6972744 -0.6497388
-0.2833747 0.6883754 -0.667711
-0.2642185 0.6791523 -0.6847925
-0.2452874 0.669643 -0.7010081
-0.2266008 0.6598839 -0.7163835
-0.2081759 0.6499092 -0.7309452
-0.1900277 0.6397513 -0.7447199
-0.1721694 0.6294406 -0.757735
-0.154612 0.6190056 -0.7700177
-0.137365 0.6084732 -0.7815953
-0.1204362 0.5978683 -0.7924952
-0.1038319 0.5872143 -0.8027442
-0.08755685 0.5765328 -0.8123692
-0.07161475 0.5658439 -0.8213964
-0.05600795 0.5551661 -0.8298516
-0.04073777 0.5445165 -0.8377602
-0.02580453 0.5339109 -0.8451469
-0.01120765 0.5233636 -0.8520358
0.003054261 0.5128877 -0.8584502
0.01698332 0.5024954 -0.8644131
0.03058232 0.4921972 -0.8699463
0.04385462 0.4820032 -0.8750713
0.05680413 0.471922 -0.8798085
0.06943519 0.4619615 -0.8841778
0.08175255 0.4521286 -0.8881983
0.09376134 0.4424295 -0.8918884
0.105467 0.4328696 -0.8952657
0.1168751 0.4234535 -0.898347
0.1279916 0.4141852 -0.9011486
0.1388226 0.405068 -0.9036859
0.1493742 0.3961046 -0.9059738
0.1596529 0.3872974 -0.9080263
0.169665 0.3786479 -0.9098569
0.1794169 0.3701575 -0.9114785
0.1889152 0.3618269 -0.9129032
0.1981665 0.3536564 -0.9141429
0.2071772 0.3456462 -0.9152084
0.2159538 0.3377958 -0.9161102
0.2245028 0.3301046 -0.9168585
0.2328305 0.3225716 -0.9174626
0.2409434 0.3151955 -0.9179314
0.2488477 0.3079749 -0.9182736
0.2565495 0.3009079 -0.918497
0.2640549 0.2939927 -0.9186094
0.27137 0.2872269 -0.918618
0.2785005 0.2806083 -0.9185295
0.2854523 0.2741343 -0.9183504
0.2922308 0.2678022 -0.9180867
0.2988417 0.2616089 -0.9177442
0.3052903 0.2555517 -0.9173283
0.3115817 0.2496272 -0.9168441
0.3177211 0.2438322 -0.9162964
0.3237134 0.2381633 -0.9156898
0.3295634 0.232617 -0.9150286
0.3352756 0.2271897 -0.9143167
0.3408546 0.2218777 -0.9135581
0.3463046 0.2166773 -0.9127563
0.3516297 0.2115847 -0.9119147
0.356834 0.206596 -0.9110366
0.3619212 0.2017072 -0.9101248
0.366895 0.1969144 -0.9091825
0.3717589 0.1922137 -0.9082121
0.376516 0.187601 -0.9072164
0.3811697 0.1830722 -0.9061977
0.3857227 0.1786235 -0.9051584
0.3901778 0.1742508 -0.9041006
0.3945378 0.16995 -0.9030265
0.3988049 0.1657173 -0.9019382
0.4029815 0.1615488 -0.9008374
0.4070696 0.1574404 -0.899726
0.4110711 0.1533884 -0.8986059
0.4149879 0.149389 -0.8974787
0.4188214 0.1454386 -0.896346
0.4225732 0.1415333 -0.8952096
0.4262443 0.1376696 -0.8940709
0.429836 0.1338441 -0.8929315
0.4333492 0.1300532 -0.8917929
0.4367845 0.1262937 -0.8906566
0.4401427 0.1225622 -0.889524
0.4434241 0.1188555 -0.8883965
0.446629 0.1151705 -0.8872757
0.4497576 0.1115043 -0.886163
0.4528097 0.1078538 -0.8850598
0.4557852 0.1042163 -0.8839676
0.4586837 0.100589 -0.8828879
0.4615046 0.09696923 -0.8818222
0.4642473 0.09335448 -0.8807721
0.4669107 0.08974229 -0.879739
0.4694939 0.08613032 -0.8787247
0.4719956 0.08251635 -0.8777307
0.4744143 0.07889826 -0.8767589
0.4767484 0.07527406 -0.8758109
0.4789961 0.07164189 -0.8748887
0.4811553 0.06800003 -0.873994
0.4832239 0.0643469 -0.8731289
0.4851994 0.06068108 -0.8722954
0.4870792 0.05700134 -0.8714956
0.4888606 0.05330661 -0.8707317
0.4905404 0.04959605 -0.8700059
0.4921156 0.04586902 -0.8693206
0.4935829 0.04212514 -0.8686779
0.4949389 0.03836427 -0.8680805
0.49618 0.03458655 -0.8675305
0.4973027 0.03079241 -0.8670305
0.4983037 0.02698261 -0.8665826
0.4991793 0.02315817 -0.8661892
0.4999265 0.01932047 -0.8658523
0.5005423 0.01547117 -0.8655738
0.5010242 0.01161219 -0.8653554
0.50137 0.007745728 -0.8651983
0.5015781 0.003874158 -0.8651037
0.5016475 -2.789963e-09 -0.8650721
0.5015781 -0.003874163 -0.8651037
0.50137 -0.007745734 -0.8651983
0.5010242 -0.0116122 -0.8653554
0.5005423 -0.01547117 -0.8655738
0.4999265 -0.01932048 -0.8658523
0.4991793 -0.02315818 -0.8661892
0.4983037 -0.02698261 -0.8665826
0.4973027 -0.03079242 -0.8670305
0.49618 -0.03458655 -0.8675305
0.4949389 -0.03836427 -0.8680805
0.4935829 -0.04212514 -0.8686779
0.4921156 -0.04586903 -0.8693206
0.4905404 -0.04959605 -0.8700059
0.4888606 -0.05330662 -0.8707317
0.4870792 -0.05700134 -0.8714956
0.4851994 -0.06068109 -0.8722954
0.4832239 -0.0643469 -0.8731289
0.4811553 -0.06800003 -0.873994
0.4789961 -0.0716419 -0.8748887
0.4767484 -0.07527406 -0.8758109
0.4744143 -0.07889826 -0.8767589
0.4719956 -0.08251635 -0.8777307
0.4694939 -0.08613032 -0.8787247
0.4669107 -0.08974229 -0.879739
0.4642473 -0.09335448 -0.8807721
0.4615046 -0.09696924 -0.8818222
0.4586837 -0.100589 -0.8828879
0.4557852 -0.1042163 -0.8839676
0.4528097 -0.1078538 -0.8850598
0.4497576 -0.1115043 -0.886163
0.446629 -0.1151705 -0.8872757
0.4434241 -0.1188555 -0.8883965
0.4401427 -0.1225622 -0.889524
0.4367845 -0.1262937 -0.8906566
0.4333492 -0.1300532 -0.8917929
0.429836 -0.1338441 -0.8929315
0.4262443 -0.1376696 -0.8940709
0.4225732 -0.1415333 -0.8952096
0.4188214 -0.1454386 -0.896346
0.4149879 -0.149389 -0.8974787
0.4110711 -0.1533884 -0.8986059
0.4070696 -0.1574404 -0.899726
0.4029815 -0.1615488 -0.9008374
0.3988049 -0.1657173 -0.9019382
0.3945378 -0.16995 -0.9030265
0.3901778 -0.1742508 -0.9041006
0.3857227 -0.1786235 -0.9051584
0.3811697 -0.1830722 -0.9061977
0.376516 -0.187601 -0.9072164