# vtk DataFile Version 2.0
Written badly by Kevin Korner
ASCII
DATASET POLYDATA
POINTS 350 FLOAT
0 0 0
0.00286533 0 0
0.005730516 2.584852e-05 1.239085e-05
0.008595273 7.757174e-05 3.700812e-05
0.01145932 0.0001551922 7.368673e-05
0.01432236 0.0002587287 0.000122261
0.01718413 0.0003881965 0.0001825647
0.02004434 0.0005436073 0.000254431
0.02290271 0.0007249693 0.0003376926
0.02575897 0.0009322869 0.0004321818
0.02861283 0.001165561 0.0005377305
0.03146404 0.001424791 0.00065417
0.0343123 0.001709969 0.0007813316
0.03715736 0.002021086 0.0009190459
0.03999894 0.002358132 0.001067144
0.04283678 0.002721088 0.001225455
0.0456706 0.003109938 0.001393809
0.04850015 0.003524659 0.001572038
0.05132516 0.003965225 0.001759969
0.05414538 0.004431607 0.001957433
0.05696054 0.004923775 0.002164259
0.05977038 0.005441694 0.002380277
0.06257465 0.005985325 0.002605315
0.06537309 0.006554629 0.002839204
0.06816546 0.007149561 0.003081773
0.07095151 0.007770076 0.003332851
0.07373097 0.008416123 0.003592268
0.07650362 0.00908765 0.003859854
0.0792692 0.009784603 0.004135438
0.08202747 0.01050692 0.00441885
0.08477818 0.01125455 0.00470992
0.08752111 0.01202742 0.00500848
0.09025601 0.01282547 0.005314359
0.09298264 0.01364863 0.005627388
0.09570078 0.01449682 0.005947398
0.09841019 0.01536998 0.006274222
0.1011106 0.01626803 0.00660769
0.1038019 0.01719088 0.006947636
0.1064837 0.01813846 0.00729389
0.109156 0.01911069 0.007646287
0.1118183 0.02010748 0.00800466
0.1144706 0.02112873 0.008368843
0.1171125 0.02217437 0.008738669
0.119744 0.02324429 0.009113974
0.1223647 0.0243384 0.009494593
0.1249745 0.02545661 0.009880361
0.1275731 0.02659881 0.01027111
0.1301603 0.02776491 0.01066669
0.132736 0.02895479 0.01106693
0.1352999 0.03016835 0.01147166
0.1378518 0.03140549 0.01188073
0.1403916 0.0326661 0.01229398
0.1429189 0.03395005 0.01271124
0.1454337 0.03525725 0.01313236
0.1479356 0.03658757 0.01355718
0.1504246 0.0379409 0.01398553
0.1529005 0.03931711 0.01441727
0.1553629 0.04071608 0.01485223
0.1578119 0.04213769 0.01529027
0.1602471 0.04358182 0.01573121
0.1626683 0.04504834 0.01617491
0.1650755 0.04653712 0.01662122
0.1674684 0.04804803 0.01706998
0.1698468 0.04958093 0.01752104
0.1722106 0.0511357 0.01797425
0.1745595 0.0527122 0.01842946
0.1768935 0.05431029 0.01888652
0.1792123 0.05592983 0.01934527
0.1815157 0.05757068 0.01980558
0.1838036 0.0592327 0.02026728
0.1860759 0.06091575 0.02073025
0.1883323 0.06261969 0.02119433
0.1905727 0.06434436 0.02165937
0.1927969 0.06608961 0.02212524
0.1950048 0.06785531 0.02259179
0.1971962 0.0696413 0.02305887
0.1993709 0.07144742 0.02352635
0.2015289 0.07327352 0.02399409
0.2036698 0.07511945 0.02446195
0.2057937 0.07698506 0.02492979
0.2079003 0.07887018 0.02539747
0.2099894 0.08077465 0.02586485
0.212061 0.08269832 0.02633181
0.2141149 0.08464103 0.0267982
0.216151 0.0866026 0.02726389
0.218169 0.08858289 0.02772876
0.2201689 0.09058171 0.02819266
0.2221505 0.09259891 0.02865547
0.2241137 0.09463432 0.02911706
0.2260584 0.09668777 0.0295773
0.2279843 0.09875909 0.03003607
0.2298915 0.1008481 0.03049323
0.2317796 0.1029546 0.03094866
0.2336487 0.1050785 0.03140225
0.2354986 0.1072196 0.03185385
0.2373291 0.1093777 0.03230336
0.2391401 0.1115526 0.03275065
0.2409316 0.1137441 0.03319561
0.2427033 0.1159521 0.03363811
0.2444552 0.1181764 0.03407803
0.2461871 0.1204168 0.03451526
0.2478989 0.1226731 0.03494969
0.2495906 0.1249452 0.03538119
0.2512619 0.1272328 0.03580967
0.2529128 0.1295358 0.036235
0.2545431 0.131854 0.03665707
0.2561528 0.1341872 0.03707578
0.2577418 0.1365351 0.03749101
0.2593098 0.1388977 0.03790266
0.2608569 0.1412748 0.03831062
0.2623829 0.143666 0.0387148
0.2638877 0.1460713 0.03911507
0.2653712 0.1484905 0.03951135
0.2668333 0.1509233 0.03990354
0.2682739 0.1533695 0.04029152
0.2696929 0.1558291 0.0406752
0.2710903 0.1583017 0.04105449
0.2724658 0.1607871 0.04142929
0.2738195 0.1632853 0.04179951
0.2751512 0.1657959 0.04216504
0.2764608 0.1683187 0.04252581
0.2777483 0.1708536 0.04288171
0.2790135 0.1734004 0.04323266
0.2802564 0.1759589 0.04357857
0.2814769 0.1785288 0.04391936
0.2826749 0.1811099 0.04425493
0.2838503 0.1837021 0.04458521
0.285003 0.1863052 0.04491011
0.286133 0.1889188 0.04522955
0.2872402 0.1915429 0.04554345
0.2883244 0.1941772 0.04585173
0.2893857 0.1968214 0.04615432
0.290424 0.1994755 0.04645113
0.2914391 0.2021391 0.04674211
0.2924311 0.2048121 0.04702716
0.2933998 0.2074943 0.04730623
0.2943451 0.2101853 0.04757924
0.2952671 0.2128851 0.04784613
0.2961656 0.2155934 0.04810683
0.2970406 0.21831 0.04836126
0.297892 0.2210346 0.04860938
0.2987197 0.2237671 0.04885111
0.2995238 0.2265072 0.04908641
0.3003041 0.2292548 0.0493152
0.3010606 0.2320095 0.04953743
0.3017932 0.2347712 0.04975305
0.3025019 0.2375396 0.04996201
0.3031867 0.2403145 0.05016424
0.3038474 0.2430958 0.05035971
0.3044841 0.2458831 0.05054836
0.3050966 0.2486763 0.05073014
0.305685 0.2514751 0.05090501
0.3062492 0.2542793 0.05107292
0.3067891 0.2570887 0.05123384
0.3073048 0.259903 0.05138773
0.3077962 0.2627221 0.05153454
0.3082632 0.2655457 0.05167423
0.3087059 0.2683735 0.05180678
0.3091241 0.2712054 0.05193215
0.3095179 0.274041 0.05205031
0.3098872 0.2768803 0.05216123
0.310232 0.2797229 0.05226488
0.3105523 0.2825687 0.05236124
0.310848 0.2854173 0.05245027
0.3111192 0.2882686 0.05253197
0.3113658 0.2911223 0.0526063
0.3115878 0.2939783 0.05267326
0.3117851 0.2968362 0.05273281
0.3119578 0.2996958 0.05278496
0.3121059 0.302557 0.05282968
0.3122293 0.3054194 0.05286696
0.312328 0.3082829 0.0528968
0.3124021 0.3111471 0.05291919
0.3124514 0.314012 0.05293411
0.3124761 0.3168772 0.05294158
0.3124761 0.3197426 0.05294158
0.3124514 0.3226078 0.05293411
0.3124021 0.3254726 0.05291919
0.312328 0.3283369 0.0528968
0.3122293 0.3312004 0.05286696
0.3121059 0.3340628 0.05282968
0.3119578 0.336924 0.05278496
0.3117851 0.3397836 0.05273281
0.3115878 0.3426415 0.05267326
0.3113658 0.3454974 0.0526063
0.3111192 0.3483512 0.05253197
0.310848 0.3512025 0.05245027
0.3105523 0.3540511 0.05236124
0.310232 0.3568969 0.05226488
0.3098872 0.3597395 0.05216123
0.3095179 0.3625787 0.05205031
0.3091241 0.3654144 0.05193215
0.3087059 0.3682463 0.05180678
0.3082632 0.3710741 0.05167423
0.3077962 0.3738977 0.05153454
0.3073048 0.3767167 0.05138773
0.3067891 0.3795311 0.05123384
0.3062492 0.3823405 0.05107292
0.305685 0.3851447 0.05090501
0.3050966 0.3879435 0.05073014
0.3044841 0.3907367 0.05054836
0.3038474 0.393524 0.05035971
0.3031867 0.3963052 0.05016424
0.3025019 0.3990802 0.04996201
0.3017932 0.4018486 0.04975305
0.3010606 0.4046103 0.04953743
0.3003041 0.407365 0.0493152
0.2995238 0.4101125 0.04908641
0.2987197 0.4128527 0.04885111
0.297892 0.4155851 0.04860938
0.2970406 0.4183098 0.04836126
0.2961656 0.4210264 0.04810683
0.2952671 0.4237346 0.04784613
0.2943451 0.4264344 0.04757924
0.2933998 0.4291255 0.04730623
0.2924311 0.4318076 0.04702716
0.2914391 0.4344806 0.04674211
0.290424 0.4371443 0.04645113
0.2893857 0.4397983 0.04615432
0.2883244 0.4424426 0.04585173
0.2872402 0.4450769 0.04554345
0.286133 0.447701 0.04522955
0.285003 0.4503146 0.04491011
0.2838503 0.4529176 0.04458521
0.2826749 0.4555098 0.04425493
0.2814769 0.458091 0.04391936
0.2802564 0.4606609 0.04357857
0.2790135 0.4632193 0.04323266
0.2777483 0.4657661 0.04288171
0.2764608 0.4683011 0.04252581
0.2751512 0.4708239 0.04216504
0.2738195 0.4733345 0.04179951
0.2724658 0.4758326 0.04142929
0.2710903 0.4783181 0.04105449
0.2696929 0.4807907 0.0406752
0.2682739 0.4832502 0.04029152
0.2668333 0.4856965 0.03990354
0.2653712 0.4881293 0.03951135
0.2638877 0.4905484 0.03911507
0.2623829 0.4929537 0.0387148
0.2608569 0.495345 0.03831062
0.2593098 0.497722 0.03790266
0.2577418 0.5000846 0.03749101
0.2561528 0.5024326 0.03707578
0.2545431 0.5047658 0.03665707
0.2529128 0.5070839 0.036235
0.2512619 0.5093869 0.03580967
0.2495906 0.5116746 0.03538119
0.2478989 0.5139466 0.03494969
0.2461871 0.516203 0.03451526
0.2444552 0.5184434 0.03407803
0.2427033 0.5206676 0.03363811
0.2409316 0.5228757 0.03319561
0.2391401 0.5250672 0.03275065
0.2373291 0.5272421 0.03230336
0.2354986 0.5294002 0.03185385
0.2336487 0.5315412 0.03140225
0.2317796 0.5336651 0.03094866
0.2298915 0.5357717 0.03049323
0.2279843 0.5378607 0.03003607
0.2260584 0.539932 0.0295773
0.2241137 0.5419855 0.02911706
0.2221505 0.5440209 0.02865547
0.2201689 0.5460381 0.02819266
0.218169 0.5480369 0.02772876
0.216151 0.5500172 0.02726389
0.2141149 0.5519787 0.0267982
0.212061 0.5539214 0.02633181
0.2099894 0.5558451 0.02586485
0.2079003 0.5577496 0.02539747
0.2057937 0.5596347 0.02492979
0.2036698 0.5615003 0.02446195
0.2015289 0.5633463 0.02399409
0.1993709 0.5651724 0.02352635
0.1971962 0.5669785 0.02305887
0.1950048 0.5687645 0.02259179
0.1927969 0.5705302 0.02212524
0.1905727 0.5722754 0.02165937
0.1883323 0.5740001 0.02119433
0.1860759 0.575704 0.02073025
0.1838036 0.5773871 0.02026728
0.1815157 0.5790491 0.01980558
0.1792123 0.5806899 0.01934527
0.1768935 0.5823095 0.01888652
0.1745595 0.5839076 0.01842946
0.1722106 0.5854841 0.01797425
0.1698468 0.5870388 0.01752104
0.1674684 0.5885717 0.01706998
0.1650755 0.5900827 0.01662122
0.1626683 0.5915714 0.01617491
0.1602471 0.5930379 0.01573121
0.1578119 0.5944821 0.01529027
0.1553629 0.5959037 0.01485223
0.1529005 0.5973027 0.01441727
0.1504246 0.5986789 0.01398553
0.1479356 0.6000322 0.01355718
0.1454337 0.6013625 0.01313236
0.1429189 0.6026697 0.01271124
0.1403916 0.6039537 0.01229398
0.1378518 0.6052143 0.01188073
0.1352999 0.6064514 0.01147166
0.132736 0.607665 0.01106693
0.1301603 0.6088549 0.01066669
0.1275731 0.610021 0.01027111
0.1249745 0.6111632 0.009880361
0.1223647 0.6122814 0.009494593
0.119744 0.6133755 0.009113974
0.1171125 0.6144454 0.008738669
0.1144706 0.615491 0.008368843
0.1118183 0.6165123 0.00800466
0.109156 0.6175091 0.007646287
0.1064837 0.6184813 0.00729389
0.1038019 0.6194289 0.006947636
0.1011106 0.6203517 0.00660769
0.09841019 0.6212498 0.006274222
0.09570078 0.622123 0.005947398
0.09298264 0.6229711 0.005627388
0.09025601 0.6237943 0.005314359
0.08752111 0.6245924 0.00500848
0.08477818 0.6253652 0.00470992
0.08202747 0.6261128 0.00441885
0.0792692 0.6268352 0.004135438
0.07650362 0.6275321 0.003859854
0.07373097 0.6282036 0.003592268
0.07095151 0.6288497 0.003332851
0.06816546 0.6294702 0.003081773
0.06537309 0.6300651 0.002839204
0.06257465 0.6306344 0.002605315
0.05977038 0.6311781 0.002380277
0.05696054 0.631696 0.002164259
0.05414538 0.6321882 0.001957433
0.05132516 0.6326545 0.001759969
0.04850015 0.6330951 0.001572038
0.0456706 0.6335098 0.001393809
0.04283678 0.6338987 0.001225455
0.03999894 0.6342616 0.001067144
0.03715736 0.6345987 0.0009190459
0.0343123 0.6349098 0.0007813316
0.03146404 0.635195 0.00065417
0.02861283 0.6354542 0.0005377305
0.02575897 0.6356875 0.0004321818
0.02290271 0.6358948 0.0003376926
0.02004434 0.6360762 0.000254431
0.01718413 0.6362316 0.0001825647
0.01432236 0.636361 0.000122261
0.01145932 0.6364646 7.368673e-05
0.008595273 0.6365422 3.700812e-05
0.005730516 0.6365939 1.239085e-05
0.00286533 0.6366198 0
0 0.6366198 0

LINES 349 1047
2 0 1
2 1 2
2 2 3
2 3 4
2 4 5
2 5 6
2 6 7
2 7 8
2 8 9
2 9 10
2 10 11
2 11 12
2 12 13
2 13 14
2 14 15
2 15 16
2 16 17
2 17 18
2 18 19
2 19 20
2 20 21
2 21 22
2 22 23
2 23 24
2 24 25
2 25 26
2 26 27
2 27 28
2 28 29
2 29 30
2 30 31
2 31 32
2 32 33
2 33 34
2 34 35
2 35 36
2 36 37
2 37 38
2 38 39
2 39 40
2 40 41
2 41 42
2 42 43
2 43 44
2 44 45
2 45 46
2 46 47
2 47 48
2 48 49
2 49 50
2 50 51
2 51 52
2 52 53
2 53 54
2 54 55
2 55 56
2 56 57
2 57 58
2 58 59
2 59 60
2 60 61
2 61 62
2 62 63
2 63 64
2 64 65
2 65 66
2 66 67
2 67 68
2 68 69
2 69 70
2 70 71
2 71 72
2 72 73
2 73 74
2 74 75
2 75 76
2 76 77
2 77 78
2 78 79
2 79 80
2 80 81
2 81 82
2 82 83
2 83 84
2 84 85
2 85 86
2 86 87
2 87 88
2 88 89
2 89 90
2 90 91
2 91 92
2 92 93
2 93 94
2 94 95
2 95 96
2 96 97
2 97 98
2 98 99
2 99 100
2 100 101
2 101 102
2 102 103
2 103 104
2 104 105
2 105 106
2 106 107
2 107 108
2 108 109
2 109 110
2 110 111
2 111 112
2 112 113
2 113 114
2 114 115
2 115 116
2 116 117
2 117 118
2 118 119
2 119 120
2 120 121
2 121 122
2 122 123
2 123 124
2 124 125
2 125 126
2 126 127
2 127 128
2 128 129
2 129 130
2 130 131
2 131 132
2 132 133
2 133 134
2 134 135
2 135 136
2 136 137
2 137 138
2 138 139
2 139 140
2 140 141
2 141 142
2 142 143
2 143 144
2 144 145
2 145 146
2 146 147
2 147 148
2 148 149
2 149 150
2 150 151
2 151 152
2 152 153
2 153 154
2 154 155
2 155 156
2 156 157
2 157 158
2 158 159
2 159 160
2 160 161
2 161 162
2 162 163
2 163 164
2 164 165
2 165 166
2 166 167
2 167 168
2 168 169
2 169 170
2 170 171
2 171 172
2 172 173
2 173 174
2 174 175
2 175 176
2 176 177
2 177 178
2 178 179
2 179 180
2 180 181
2 181 182
2 182 183
2 183 184
2 184 185
2 185 186
2 186 187
2 187 188
2 188 189
2 189 190
2 190 191
2 191 192
2 192 193
2 193 194
2 194 195
2 195 196
2 196 197
2 197 198
2 198 199
2 199 200
2 200 201
2 201 202
2 202 203
2 203 204
2 204 205
2 205 206
2 206 207
2 207 208
2 208 209
2 209 210
2 210 211
2 211 212
2 212 213
2 213 214
2 214 215
2 215 216
2 216 217
2 217 218
2 218 219
2 219 220
2 220 221
2 221 222
2 222 223
2 223 224
2 224 225
2 225 226
2 226 227
2 227 228
2 228 229
2 229 230
2 230 231
2 231 232
2 232 233
2 233 234
2 234 235
2 235 236
2 236 237
2 237 238
2 238 239
2 239 240
2 240 241
2 241 242
2 242 243
2 243 244
2 244 245
2 245 246
2 246 247
2 247 248
2 248 249
2 249 250
2 250 251
2 251 252
2 252 253
2 253 254
2 254 255
2 255 256
2 256 257
2 257 258
2 258 259
2 259 260
2 260 261
2 261 262
2 262 263
2 263 264
2 264 265
2 265 266
2 266 267
2 267 268
2 268 269
2 269 270
2 270 271
2 271 272
2 272 273
2 273 274
2 274 275
2 275 276
2 276 277
2 277 278
2 278 279
2 279 280
2 280 281
2 281 282
2 282 283
2 283 284
2 284 285
2 285 286
2 286 287
2 287 288
2 288 289
2 289 290
2 290 291
2 291 292
2 292 293
2 293 294
2 294 295
2 295 296
2 296 297
2 297 298
2 298 299
2 299 300
2 300 301
2 301 302
2 302 303
2 303 304
2 304 305
2 305 306
2 306 307
2 307 308
2 308 309
2 309 310
2 310 311
2 311 312
2 312 313
2 313 314
2 314 315
2 315 316
2 316 317
2 317 318
2 318 319
2 319 320
2 320 321
2 321 322
2 322 323
2 323 324
2 324 325
2 325 326
2 326 327
2 327 328
2 328 329
2 329 330
2 330 331
2 331 332
2 332 333
2 333 334
2 334 335
2 335 336
2 336 337
2 337 338
2 338 339
2 339 340
2 340 341
2 341 342
2 342 343
2 343 344
2 344 345
2 345 346
2 346 347
2 347 348
2 348 349


POINT_DATA 350
SCALARS a FLOAT 1
LOOKUP_TABLE default
0.0005894628
0.0005894628
0.0005894628
0.0005894628
0.0005894628
0.0005894628
0.0005894628
0.0005894628
0.0005894628
0.0005894628
0.0005894628
0.0005894628
0.0005894628
0.0005894628
0.0005894628
0.0005894628
0.0005894628
0.0005894628
0.0005894628
0.0005894628
0.0005894628
0.0005894628
0.0005894628
0.0005894628
0.0005894628
0.0005894628
0.0005894628
0.0005894628
0.0005894628
0.0005894628
0.0005894628
0.0005894628
0.0005894628
0.0005894628
0.0005894628
0.0005894628
0.0005894628
0.0005894628
0.0005894628
0.0005894628
0.0005894628
0.0005894628
0.0005894628
0.0005894628
0.0005894628
0.0005894628
0.0005894628
0.0005894628
0.0005894628
0.0005894628
0.0005894628
0.0005894628
0.0005894628
0.0005894628
0.0005894628
0.0005894628
0.0005894628
0.0005894628
0.0005894628
0.0005894628
0.0005894628
0.0005894628
0.0005894628
0.0005894628
0.0005894628
0.0005894628
0.0005894628
0.0005894628
0.0005894628
0.0005894628
0.0005894628
0.0005894628
0.0005894628
0.0005894628
0.0005894628
0.0005894628
0.0005894628
0.0005894628
0.0005894628
0.0005894628
0.0005894628
0.0005894628
0.0005894628
0.0005894628
0.0005894628
0.0005894628
0.0005894628
0.0005894628
0.0005894628
0.0005894628
0.0005894628
0.0005894628
0.0005894628
0.0005894628
0.0005894628
0.0005894628
0.0005894628
0.0005894628
0.0005894628
0.0005894628
0.0005894628
0.0005894628
0.0005894628
0.0005894628
0.0005894628
0.0005894628
0.0005894628
0.0005894628
0.0005894628
0.0005894628
0.0005894628
0.0005894628
0.0005894628
0.0005894628
0.0005894628
0.0005894628
0.0005894628
0.0005894628
0.0005894628
0.0005894628
0.0005894628
0.0005894628
0.0005894628
0.0005894628
0.0005894628
0.0005894628
0.0005894628
0.0005894628
0.0005894628
0.0005894628
0.0005894628
0.0005894628
0.0005894628
0.0005894628
0.0005894628
0.0005894628
0.0005894628
0.0005894628
0.0005894628
0.0005894628
0.0005894628
0.0005894628
0.0005894628
0.0005894628
0.0005894628
0.0005894628
0.0005894628
0.0005894628
0.0005894628
0.0005894628
0.0005894628
0.0005894628
0.0005894628
0.0005894628
0.0005894628
0.0005894628
0.0005894628
0.0005894628
0.0005894628
0.0005894628
0.0005894628
0.0005894628
0.0005894628
0.0005894628
0.0005894628
0.0005894628
0.0005894628
0.0005894628
0.0005894628
0.0005894628
0.0005894628
0.0005894628
0.0005894628
0.0005894628
0.0005894628
0.0005894628
0.0005894628
0.0005894628
0.0005894628
0.0005894628
0.0005894628
0.0005894628
0.0005894628
0.0005894628
0.0005894628
0.0005894628
0.0005894628
0.0005894628
0.0005894628
0.0005894628
0.0005894628
0.0005894628
0.0005894628
0.0005894628
0.0005894628
0.0005894628
0.0005894628
0.0005894628
0.0005894628
0.0005894628
0.0005894628
0.0005894628
0.0005894628
0.0005894628
0.0005894628
0.0005894628
0.0005894628
0.0005894628
0.0005894628
0.0005894628
0.0005894628
0.0005894628
0.0005894628
0.0005894628
0.0005894628
0.0005894628
0.0005894628
0.0005894628
0.0005894628
0.0005894628
0.0005894628
0.0005894628
0.0005894628
0.0005894628
0.0005894628
0.0005894628
0.0005894628
0.0005894628
0.0005894628
0.0005894628
0.0005894628
0.0005894628
0.0005894628
0.0005894628
0.0005894628
0.0005894628
0.0005894628
0.0005894628
0.0005894628
0.0005894628
0.0005894628
0.0005894628
0.0005894628
0.0005894628
0.0005894628
0.0005894628
0.0005894628
0.0005894628
0.0005894628
0.0005894628
0.0005894628
0.0005894628
0.0005894628
0.0005894628
0.0005894628
0.0005894628
0.0005894628
0.0005894628
0.0005894628
0.0005894628
0.0005894628
0.0005894628
0.0005894628
0.0005894628
0.0005894628
0.0005894628
0.0005894628
0.0005894628
0.0005894628
0.0005894628
0.0005894628
0.0005894628
0.0005894628
0.0005894628
0.0005894628
0.0005894628
0.0005894628
0.0005894628
0.0005894628
0.0005894628
0.0005894628
0.0005894628
0.0005894628
0.0005894628
0.0005894628
0.0005894628
0.0005894628
0.0005894628
0.0005894628
0.0005894628
0.0005894628
0.0005894628
0.0005894628
0.0005894628
0.0005894628
0.0005894628
0.0005894628
0.0005894628
0.0005894628
0.0005894628
0.0005894628
0.0005894628
0.0005894628
0.0005894628
0.0005894628
0.0005894628
0.0005894628
0.0005894628
0.0005894628
0.0005894628
0.0005894628
0.0005894628
0.0005894628
0.0005894628
0.0005894628
0.0005894628
0.0005894628
0.0005894628
0.0005894628
0.0005894628
0.0005894628
0.0005894628
0.0005894628
0.0005894628
0.0005894628
0.0005894628
0.0005894628
0.0005894628
0.0005894628
0.0005894628
0.0005894628
0.0005894628
0.0005894628
0.0005894628
0.0005894628
0.0005894628
0.0005894628
0.0005894628
0.0005894628
0.0005894628
0.0005894628
0.0005894628
0.0005894628
0.0005894628
0.0005894628
0.0005894628
0.0005894628
0.0005894628
0.0005894628
0.0005894628


SCALARS b FLOAT 1
LOOKUP_TABLE default
0.04420971
0.04420971
0.04420971
0.04420971
0.04420971
0.04420971
0.04420971
0.04420971
0.04420971
0.04420971
0.04420971
0.04420971
0.04420971
0.04420971
0.04420971
0.04420971
0.04420971
0.04420971
0.04420971
0.04420971
0.04420971
0.04420971
0.04420971
0.04420971
0.04420971
0.04420971
0.04420971
0.04420971
0.04420971
0.04420971
0.04420971
0.04420971
0.04420971
0.04420971
0.04420971
0.04420971
0.04420971
0.04420971
0.04420971
0.04420971
0.04420971
0.04420971
0.04420971
0.04420971
0.04420971
0.04420971
0.04420971
0.04420971
0.04420971
0.04420971
0.04420971
0.04420971
0.04420971
0.04420971
0.04420971
0.04420971
0.04420971
0.04420971
0.04420971
0.04420971
0.04420971
0.04420971
0.04420971
0.04420971
0.04420971
0.04420971
0.04420971
0.04420971
0.04420971
0.04420971
0.04420971
0.04420971
0.04420971
0.04420971
0.04420971
0.04420971
0.04420971
0.04420971
0.04420971
0.04420971
0.04420971
0.04420971
0.04420971
0.04420971
0.04420971
0.04420971
0.04420971
0.04420971
0.04420971
0.04420971
0.04420971
0.04420971
0.04420971
0.04420971
0.04420971
0.04420971
0.04420971
0.04420971
0.04420971
0.04420971
0.04420971
0.04420971
0.04420971
0.04420971
0.04420971
0.04420971
0.04420971
0.04420971
0.04420971
0.04420971
0.04420971
0.04420971
0.04420971
0.04420971
0.04420971
0.04420971
0.04420971
0.04420971
0.04420971
0.04420971
0.04420971
0.04420971
0.04420971
0.04420971
0.04420971
0.04420971
0.04420971
0.04420971
0.04420971
0.04420971
0.04420971
0.04420971
0.04420971
0.04420971
0.04420971
0.04420971
0.04420971
0.04420971
0.04420971
0.04420971
0.04420971
0.04420971
0.04420971
0.04420971
0.04420971
0.04420971
0.04420971
0.04420971
0.04420971
0.04420971
0.04420971
0.04420971
0.04420971
0.04420971
0.04420971
0.04420971
0.04420971
0.04420971
0.04420971
0.04420971
0.04420971
0.04420971
0.04420971
0.04420971
0.04420971
0.04420971
0.04420971
0.04420971
0.04420971
0.04420971
0.04420971
0.04420971
0.04420971
0.04420971
0.04420971
0.04420971
0.04420971
0.04420971
0.04420971
0.04420971
0.04420971
0.04420971
0.04420971
0.04420971
0.04420971
0.04420971
0.04420971
0.04420971
0.04420971
0.04420971
0.04420971
0.04420971
0.04420971
0.04420971
0.04420971
0.04420971
0.04420971
0.04420971
0.04420971
0.04420971
0.04420971
0.04420971
0.04420971
0.04420971
0.04420971
0.04420971
0.04420971
0.04420971
0.04420971
0.04420971
0.04420971
0.04420971
0.04420971
0.04420971
0.04420971
0.04420971
0.04420971
0.04420971
0.04420971
0.04420971
0.04420971
0.04420971
0.04420971
0.04420971
0.04420971
0.04420971
0.04420971
0.04420971
0.04420971
0.04420971
0.04420971
0.04420971
0.04420971
0.04420971
0.04420971
0.04420971
0.04420971
0.04420971
0.04420971
0.04420971
0.04420971
0.04420971
0.04420971
0.04420971
0.04420971
0.04420971
0.04420971
0.04420971
0.04420971
0.04420971
0.04420971
0.04420971
0.04420971
0.04420971
0.04420971
0.04420971
0.04420971
0.04420971
0.04420971
0.04420971
0.04420971
0.04420971
0.04420971
0.04420971
0.04420971
0.04420971
0.04420971
0.04420971
0.04420971
0.04420971
0.04420971
0.04420971
0.04420971
0.04420971
0.04420971
0.04420971
0.04420971
0.04420971
0.04420971
0.04420971
0.04420971
0.04420971
0.04420971
0.04420971
0.04420971
0.04420971
0.04420971
0.04420971
0.04420971
0.04420971
0.04420971
0.04420971
0.04420971
0.04420971
0.04420971
0.04420971
0.04420971
0.04420971
0.04420971
0.04420971
0.04420971
0.04420971
0.04420971
0.04420971
0.04420971
0.04420971
0.04420971
0.04420971
0.04420971
0.04420971
0.04420971
0.04420971
0.04420971
0.04420971
0.04420971
0.04420971
0.04420971
0.04420971
0.04420971
0.04420971
0.04420971
0.04420971
0.04420971
0.04420971
0.04420971
0.04420971
0.04420971
0.04420971
0.04420971
0.04420971
0.04420971
0.04420971
0.04420971
0.04420971
0.04420971
0.04420971
0.04420971
0.04420971
0.04420971
0.04420971
0.04420971
0.04420971
0.04420971
0.04420971
0.04420971
0.04420971
0.04420971
0.04420971
0.04420971
0.04420971


VECTORS d1 FLOAT
0 0.900501 0.4348539
-0.01000403 0.9028701 0.4297971
-0.01999134 0.9051136 0.4246996
-0.02996069 0.9072317 0.4195628
-0.03991083 0.909225 0.4143875
-0.04984055 0.9110937 0.4091751
-0.05974865 0.9128382 0.4039265
-0.06963394 0.9144589 0.3986428
-0.07949526 0.9159562 0.3933253
-0.08933146 0.9173306 0.3879749
-0.09914141 0.9185825 0.3825927
-0.108924 0.9197124 0.3771799
-0.1186782 0.9207208 0.3717375
-0.1284028 0.9216081 0.3662666
-0.1380968 0.9223749 0.3607683
-0.1477592 0.9230218 0.3552436
-0.157389 0.9235491 0.3496937
-0.1669851 0.9239576 0.3441195
-0.1765465 0.9242478 0.3385222
-0.1860724 0.9244202 0.3329028
-0.1955617 0.9244755 0.3272623
-0.2050135 0.9244142 0.3216018
-0.214427 0.9242371 0.3159224
-0.2238011 0.9239446 0.3102249
-0.2331351 0.9235374 0.3045106
-0.242428 0.9230162 0.2987804
-0.251679 0.9223817 0.2930352
-0.2608873 0.9216345 0.2872762
-0.2700521 0.9207753 0.2815044
-0.2791726 0.9198048 0.2757206
-0.288248 0.9187236 0.2699259
-0.2972776 0.9175325 0.2641214
-0.3062606 0.9162322 0.2583079
-0.3151962 0.9148234 0.2524865
-0.3240839 0.9133069 0.246658
-0.3329228 0.9116833 0.2408235
-0.3417124 0.9099534 0.234984
-0.3504519 0.908118 0.2291403
-0.3591407 0.9061777 0.2232934
-0.3677782 0.9041334 0.2174442
-0.3763637 0.9019858 0.2115937
-0.3848968 0.8997357 0.2057427
-0.3933767 0.8973839 0.1998922
-0.401803 0.8949311 0.1940431
-0.410175 0.8923781 0.1881963
-0.4184923 0.8897256 0.1823526
-0.4267543 0.8869746 0.176513
-0.4349605 0.8841257 0.1706783
-0.4431105 0.8811798 0.1648494
-0.4512037 0.8781376 0.1590271
-0.4592397 0.8749999 0.1532124
-0.467218 0.8717676 0.147406
-0.4751382 0.8684415 0.1416088
-0.4829999 0.8650223 0.1358216
-0.4908027 0.8615108 0.1300454
-0.4985461 0.857908 0.1242807
-0.5062298 0.8542144 0.1185286
-0.5138535 0.8504311 0.1127898
-0.5214167 0.8465587 0.1070651
-0.5289191 0.8425982 0.1013553
-0.5363604 0.8385502 0.0956612
-0.5437402 0.8344157 0.08998355
-0.5510584 0.8301953 0.08432315
-0.5583144 0.82589 0.07868077
-0.5655081 0.8215006 0.07305716
-0.5726392 0.8170278 0.06745308
-0.5797075 0.8124724 0.06186928
-0.5867126 0.8078354 0.05630651
-0.5936543 0.8031173 0.05076551
-0.6005324 0.7983192 0.045247
-0.6073467 0.7934418 0.03975172
-0.6140969 0.7884858 0.03428038
-0.6207829 0.7834521 0.0288337
-0.6274045 0.7783415 0.02341239
-0.6339614 0.7731548 0.01801714
-0.6404535 0.7678927 0.01264867
-0.6468807 0.7625562 0.007307652
-0.6532428 0.7571459 0.001994786
-0.6595395 0.7516627 -0.003289251
-0.6657709 0.7461073 -0.008543782
-0.6719367 0.7404806 -0.01376814
-0.6780369 0.7347833 -0.01896165
-0.6840712 0.7290162 -0.02412365
-0.6900397 0.7231801 -0.02925349
-0.6959422 0.7172757 -0.03435052
-0.7017786 0.711304 -0.0394141
-0.7075488 0.7052655 -0.04444356
-0.7132528 0.6991611 -0.04943829
-0.7188905 0.6929916 -0.05439765
-0.7244617 0.6867578 -0.059321
-0.7299665 0.6804603 -0.06420773
-0.7354048 0.6741 -0.06905721
-0.7407766 0.6676777 -0.07386883
-0.7460817 0.661194 -0.07864198
-0.7513203 0.6546498 -0.08337605
-0.7564921 0.6480457 -0.08807043
-0.7615973 0.6413826 -0.09272453
-0.7666358 0.6346613 -0.09733775
-0.7716075 0.6278824 -0.1019095
-0.7765126 0.6210466 -0.1064392
-0.7813509 0.6141549 -0.1109262
-0.7861224 0.6072078 -0.1153701
-0.7908273 0.6002061 -0.1197701
-0.7954654 0.5931506 -0.1241257
-0.8000368 0.586042 -0.1284365
-0.8045414 0.5788811 -0.1327017
-0.8089795 0.5716685 -0.1369208
-0.8133508 0.5644051 -0.1410933
-0.8176556 0.5570914 -0.1452186
-0.8218937 0.5497284 -0.1492962
-0.8260653 0.5423166 -0.1533255
-0.8301704 0.5348569 -0.157306
-0.834209 0.5273499 -0.1612371
-0.8381811 0.5197964 -0.1651183
-0.8420869 0.5121971 -0.1689491
-0.8459263 0.5045527 -0.1727289
-0.8496994 0.496864 -0.1764572
-0.8534062 0.4891316 -0.1801335
-0.8570469 0.4813563 -0.1837572
-0.8606214 0.4735388 -0.1873279
-0.8641299 0.4656799 -0.1908451
-0.8675723 0.4577801 -0.1943081
-0.8709488 0.4498404 -0.1977166
-0.8742593 0.4418614 -0.2010701
-0.8775041 0.4338437 -0.2043679
-0.880683 0.4257882 -0.2076097
-0.8837963 0.4176955 -0.210795
-0.886844 0.4095664 -0.2139232
-0.889826 0.4014016 -0.2169939
-0.8927426 0.3932018 -0.2200067
-0.8955938 0.3849678 -0.222961
-0.8983796 0.3767002 -0.2258564
-0.9011001 0.3683998 -0.2286924
-0.9037554 0.3600673 -0.2314687
-0.9063455 0.3517034 -0.2341847
-0.9088706 0.3433089 -0.23684
-0.9113307 0.3348846 -0.2394341
-0.9137258 0.326431 -0.2419667
-0.9160561 0.317949 -0.2444374
-0.9183216 0.3094393 -0.2468456
-0.9205224 0.3009026 -0.2491911
-0.9226585 0.2923397 -0.2514733
-0.92473 0.2837514 -0.253692
-0.926737 0.2751382 -0.2558467
-0.9286795 0.2665011 -0.257937
-0.9305577 0.2578407 -0.2599627
-0.9323715 0.2491578 -0.2619232
-0.9341211 0.2404532 -0.2638183
-0.9358064 0.2317275 -0.2656477
-0.9374276 0.2229816 -0.267411
-0.9389848 0.2142162 -0.2691078
-0.9404779 0.205432 -0.2707379
-0.941907 0.1966299 -0.272301
-0.9432723 0.1878106 -0.2737967
-0.9445736 0.1789748 -0.2752248
-0.9458112 0.1701233 -0.2765851
-0.9469849 0.161257 -0.2778771
-0.948095 0.1523764 -0.2791008
-0.9491414 0.1434826 -0.2802559
-0.9501241 0.1345761 -0.2813421
-0.9510433 0.1256578 -0.2823593
-0.9518989 0.1167285 -0.2833071
-0.952691 0.1077889 -0.2841856
-0.9534196 0.09883981 -0.2849944
-0.9540847 0.08988207 -0.2857334
-0.9546864 0.08091642 -0.2864025
-0.9552247 0.07194365 -0.2870015
-0.9556996 0.06296455 -0.2875303
-0.9561112 0.05397991 -0.2879889
-0.9564594 0.04499052 -0.288377
-0.9567443 0.03599717 -0.2886947
-0.9569658 0.02700065 -0.2889419
-0.9571241 0.01800176 -0.2891184
-0.957219 0.009001276 -0.2892244
-0.9572507 1.614615e-09 -0.2892597
-0.957219 -0.009001273 -0.2892244
-0.9571241 -0.01800175 -0.2891184
-0.9569658 -0.02700065 -0.2889419
-0.9567443 -0.03599717 -0.2886947
-0.9564594 -0.04499052 -0.288377
-0.9561112 -0.05397991 -0.2879889
-0.9556996 -0.06296455 -0.2875303
-0.9552247 -0.07194364 -0.2870015
-0.9546864 -0.08091641 -0.2864025
-0.9540847 -0.08988206 -0.2857334
-0.9534196 -0.09883981 -0.2849944
-0.952691 -0.1077889 -0.2841856
-0.9518989 -0.1167284 -0.2833071
-0.9510433 -0.1256578 -0.2823593
-0.9501241 -0.1345761 -0.2813421
-0.9491414 -0.1434825 -0.2802559
-0.948095 -0.1523764 -0.2791008
-0.9469849 -0.161257 -0.2778771
-0.9458112 -0.1701233 -0.2765851
-0.9445736 -0.1789748 -0.2752248
-0.9432723 -0.1878106 -0.2737967
-0.941907 -0.1966299 -0.272301
-0.9404779 -0.205432 -0.2707379
-0.9389848 -0.2142162 -0.2691078
-0.9374276 -0.2229816 -0.267411
-0.9358064 -0.2317275 -0.2656477
-0.9341211 -0.2404532 -0.2638183
-0.9323715 -0.2491578 -0.2619232
-0.9305577 -0.2578407 -0.2599627
-0.9286795 -0.2665011 -0.257937
-0.926737 -0.2751382 -0.2558467
-0.92473 -0.2837514 -0.253692
-0.9226585 -0.2923397 -0.2514733
-0.9205224 -0.3009026 -0.2491911
-0.9183216 -0.3094393 -0.2468456
-0.9160561 -0.317949 -0.2444374
-0.9137258 -0.326431 -0.2419667
-0.9113307 -0.3348846 -0.2394341
-0.9088706 -0.3433089 -0.23684
-0.9063455 -0.3517034 -0.2341847
-0.9037554 -0.3600673 -0.2314687
-0.9011001 -0.3683998 -0.2286924
-0.8983796 -0.3767002 -0.2258564
-0.8955938 -0.3849678 -0.222961
-0.8927426 -0.3932018 -0.2200067
-0.889826 -0.4014016 -0.2169939
-0.886844 -0.4095664 -0.2139232
-0.8837963 -0.4176955 -0.210795