# vtk DataFile Version 2.0
Written badly by Kevin Korner
ASCII
DATASET POLYDATA
POINTS 350 FLOAT
0 0 0
0.00286533 0 0
0.005727758 -0.0001004711 8.076442e-05
0.008581246 -0.0003004181 0.0002473231
0.01141942 -0.0005982906 0.0005045653
0.01423558 -0.0009919527 0.0008571846
0.01702279 -0.001478657 0.001309622
0.01977386 -0.002055025 0.001866006
0.02248141 -0.002717033 0.002530093
0.02513797 -0.00346001 0.00330521
0.02773598 -0.004278639 0.004194193
0.03026791 -0.005166971 0.005199338
0.03272629 -0.006118449 0.006322342
0.03510383 -0.007125941 0.007564269
0.03739345 -0.008181781 0.008925503
0.03958839 -0.009277828 0.01040572
0.04168226 -0.01040552 0.01200388
0.04366916 -0.01155596 0.01371819
0.04554368 -0.01271996 0.01554613
0.04730103 -0.01388819 0.01748445
0.04893704 -0.01505119 0.01952921
0.05044825 -0.0161995 0.02167577
0.05183191 -0.01732377 0.0239189
0.05308603 -0.01841481 0.02625276
0.05420939 -0.0194637 0.02867102
0.05520153 -0.02046187 0.03116691
0.05606276 -0.02140117 0.03373325
0.05679411 -0.02227394 0.03636261
0.05739734 -0.02307308 0.03904731
0.05787487 -0.02379206 0.04177955
0.05822975 -0.02442503 0.04455146
0.05846561 -0.02496677 0.04735521
0.05858658 -0.02541276 0.05018303
0.05859723 -0.02575917 0.05302732
0.05850255 -0.02600283 0.0558807
0.05830781 -0.02614128 0.05873605
0.05801855 -0.02617269 0.06158657
0.05764051 -0.02609587 0.06442582
0.05717955 -0.02591023 0.06724772
0.05664159 -0.02561572 0.07004665
0.05603257 -0.02521281 0.07281736
0.05535841 -0.02470247 0.07555509
0.05462494 -0.02408605 0.07825549
0.05383786 -0.02336532 0.08091466
0.05300275 -0.02254236 0.08352913
0.05212498 -0.02161957 0.08609586
0.05120972 -0.02059956 0.0886122
0.05026193 -0.01948517 0.09107593
0.04928631 -0.0182794 0.09348516
0.04828732 -0.01698537 0.09583837
0.04726917 -0.01560631 0.09813439
0.0462358 -0.01414551 0.1003723
0.04519089 -0.01260628 0.1025515
0.04413785 -0.01099197 0.1046717
0.04307987 -0.009305901 0.1067328
0.04201985 -0.007551361 0.1087348
0.04096046 -0.005731601 0.1106781
0.03990415 -0.003849807 0.1125631
0.03885314 -0.001909092 0.1143904
0.03780944 8.751359e-05 0.1161608
0.03677484 0.002137069 0.1178752
0.03575097 0.004236733 0.1195344
0.03473925 0.006383764 0.1211397
0.03374095 0.008575526 0.122692
0.03275718 0.01080949 0.1241926
0.0317889 0.01308324 0.1256426
0.03083694 0.01539445 0.1270434
0.02990199 0.01774093 0.1283962
0.02898465 0.02012058 0.1297023
0.0280854 0.02253139 0.130963
0.02720461 0.02497148 0.1321797
0.02634258 0.02743906 0.1333536
0.02549953 0.02993241 0.1344861
0.02467559 0.03244995 0.1355785
0.02387084 0.03499014 0.136632
0.02308528 0.03755157 0.1376479
0.02231889 0.04013288 0.1386275
0.02157157 0.0427328 0.139572
0.02084319 0.04535014 0.1404825
0.02013358 0.04798377 0.1413603
0.01944255 0.05063264 0.1422066
0.01876985 0.05329575 0.1430223
0.01811523 0.05597218 0.1438086
0.01747842 0.05866105 0.1445666
0.0168591 0.06136155 0.1452973
0.01625698 0.06407291 0.1460016
0.01567171 0.0667944 0.1466806
0.01510297 0.06952537 0.1473352
0.0145504 0.07226517 0.1479663
0.01401364 0.07501323 0.1485747
0.01349234 0.07776899 0.1491613
0.01298614 0.08053193 0.149727
0.01249466 0.08330159 0.1502725
0.01201754 0.0860775 0.1507986
0.01155441 0.08885925 0.1513061
0.01110491 0.09164645 0.1517955
0.01066868 0.09443873 0.1522677
0.01024536 0.09723576 0.1527233
0.009834582 0.1000372 0.1531629
0.00943601 0.1028428 0.1535871
0.009049294 0.1056522 0.1539966
0.008674094 0.1084653 0.1543918
0.008310079 0.1112816 0.1547733
0.007956922 0.1141012 0.1551417
0.007614304 0.1169236 0.1554975
0.007281913 0.1197488 0.1558411
0.006959446 0.1225765 0.1561729
0.006646605 0.1254066 0.1564935
0.006343104 0.1282389 0.1568033
0.006048661 0.1310733 0.1571026
0.005763005 0.1339097 0.1573919
0.005485873 0.1367478 0.1576715
0.005217009 0.1395877 0.1579418
0.004956165 0.1424291 0.1582031
0.004703104 0.145272 0.1584557
0.004457594 0.1481164 0.1587001
0.004219413 0.150962 0.1589363
0.003988346 0.1538088 0.1591649
0.003764187 0.1566568 0.1593859
0.003546736 0.1595059 0.1595997
0.003335801 0.1623559 0.1598065
0.003131199 0.1652069 0.1600066
0.002932753 0.1680588 0.1602002
0.002740292 0.1709115 0.1603874
0.002553653 0.173765 0.1605685
0.00237268 0.1766193 0.1607438
0.002197223 0.1794742 0.1609133
0.002027138 0.1823298 0.1610772
0.001862286 0.1851859 0.1612358
0.001702537 0.1880427 0.1613892
0.001547763 0.1909 0.1615374
0.001397843 0.1937578 0.1616808
0.001252662 0.1966161 0.1618194
0.001112109 0.1994749 0.1619533
0.0009760773 0.202334 0.1620827
0.000844467 0.2051936 0.1622077
0.0007171808 0.2080536 0.1623284
0.0005941267 0.2109139 0.1624448
0.0004752164 0.2137745 0.1625572
0.0003603659 0.2166355 0.1626657
0.0002494951 0.2194968 0.1627702
0.0001425276 0.2223583 0.1628709
3.939048e-05 0.2252202 0.1629678
-5.998547e-05 0.2280822 0.1630612
-0.0001556663 0.2309446 0.1631509
-0.0002477146 0.2338071 0.1632372
-0.0003361903 0.2366699 0.16332
-0.0004211498 0.2395329 0.1633994
-0.0005026469 0.242396 0.1634755
-0.0005807327 0.2452594 0.1635484
-0.0006554553 0.2481229 0.1636181
-0.0007268605 0.2509865 0.1636846
-0.0007949915 0.2538503 0.163748
-0.0008598891 0.2567143 0.1638083
-0.0009215916 0.2595784 0.1638657
-0.0009801352 0.2624426 0.1639201
-0.001035554 0.2653069 0.1639715
-0.00108788 0.2681714 0.16402
-0.001137142 0.2710359 0.1640657
-0.001183369 0.2739006 0.1641085
-0.001226586 0.2767653 0.1641486
-0.001266818 0.2796301 0.1641858
-0.001304086 0.282495 0.1642203
-0.001338412 0.2853599 0.164252
-0.001369812 0.2882249 0.164281
-0.001398306 0.29109 0.1643074
-0.001423907 0.2939551 0.164331
-0.00144663 0.2968203 0.164352
-0.001466486 0.2996855 0.1643703
-0.001483486 0.3025507 0.164386
-0.00149764 0.305416 0.1643991
-0.001508954 0.3082813 0.1644095
-0.001517434 0.3111466 0.1644174
-0.001523085 0.3140119 0.1644226
-0.00152591 0.3168772 0.1644252
-0.00152591 0.3197426 0.1644252
-0.001523085 0.3226079 0.1644226
-0.001517434 0.3254732 0.1644174
-0.001508954 0.3283385 0.1644095
-0.00149764 0.3312038 0.1643991
-0.001483486 0.3340691 0.164386
-0.001466486 0.3369343 0.1643703
-0.00144663 0.3397995 0.164352
-0.001423907 0.3426647 0.164331
-0.001398306 0.3455298 0.1643074
-0.001369812 0.3483948 0.164281
-0.001338411 0.3512599 0.164252
-0.001304086 0.3541248 0.1642203
-0.001266818 0.3569897 0.1641858
-0.001226586 0.3598545 0.1641486
-0.001183369 0.3627192 0.1641085
-0.001137142 0.3655838 0.1640657
-0.001087879 0.3684484 0.16402
-0.001035554 0.3713128 0.1639715
-0.000980135 0.3741772 0.1639201
-0.0009215914 0.3770414 0.1638657
-0.0008598889 0.3799055 0.1638083
-0.0007949913 0.3827694 0.163748
-0.0007268603 0.3856332 0.1636846
-0.0006554551 0.3884969 0.1636181
-0.0005807324 0.3913604 0.1635484
-0.0005026466 0.3942238 0.1634755
-0.0004211495 0.3970869 0.1633994
-0.00033619 0.3999499 0.16332
-0.0002477143 0.4028126 0.1632371
-0.000155666 0.4056752 0.1631509
-5.998516e-05 0.4085375 0.1630612
3.939079e-05 0.4113996 0.1629678
0.0001425279 0.4142614 0.1628709
0.0002494954 0.417123 0.1627702
0.0003603662 0.4199843 0.1626657
0.0004752167 0.4228452 0.1625572
0.000594127 0.4257059 0.1624448
0.0007171812 0.4285662 0.1623284
0.0008444673 0.4314262 0.1622077
0.0009760777 0.4342857 0.1620827
0.001112109 0.4371449 0.1619533
0.001252662 0.4400037 0.1618194
0.001397843 0.442862 0.1616808
0.001547763 0.4457198 0.1615374
0.001702537 0.4485771 0.1613892
0.001862287 0.4514338 0.1612358
0.002027138 0.45429 0.1610772
0.002197224 0.4571456 0.1609133
0.002372681 0.4600005 0.1607438
0.002553653 0.4628547 0.1605685
0.002740292 0.4657082 0.1603874
0.002932753 0.468561 0.1602002
0.003131199 0.4714129 0.1600066
0.003335802 0.4742639 0.1598065
0.003546736 0.4771139 0.1595997
0.003764187 0.479963 0.1593859
0.003988347 0.482811 0.1591649
0.004219414 0.4856578 0.1589363
0.004457595 0.4885034 0.1587001
0.004703105 0.4913477 0.1584557
0.004956166 0.4941907 0.1582031
0.005217009 0.4970321 0.1579418
0.005485874 0.499872 0.1576715
0.005763006 0.5027101 0.1573919
0.006048662 0.5055465 0.1571026
0.006343104 0.5083809 0.1568033
0.006646606 0.5112132 0.1564935
0.006959446 0.5140433 0.1561729
0.007281914 0.516871 0.1558411
0.007614304 0.5196962 0.1554975
0.007956923 0.5225186 0.1551417
0.00831008 0.5253381 0.1547733
0.008674095 0.5281545 0.1543918
0.009049294 0.5309675 0.1539966
0.00943601 0.533777 0.1535871
0.009834583 0.5365826 0.1531629
0.01024536 0.539384 0.1527233
0.01066868 0.542181 0.1522677
0.01110491 0.5449733 0.1517955
0.01155441 0.5477605 0.1513061
0.01201754 0.5505423 0.1507986
0.01249466 0.5533182 0.1502725
0.01298614 0.5560878 0.149727
0.01349234 0.5588508 0.1491613
0.01401364 0.5616065 0.1485747
0.0145504 0.5643546 0.1479663
0.01510297 0.5670944 0.1473352
0.01567171 0.5698254 0.1466806
0.01625698 0.5725469 0.1460016
0.0168591 0.5752582 0.1452973
0.01747842 0.5779587 0.1445666
0.01811523 0.5806476 0.1438086
0.01876985 0.583324 0.1430223
0.01944255 0.5859871 0.1422066
0.02013358 0.588636 0.1413603
0.02084319 0.5912696 0.1404825
0.02157157 0.593887 0.139572
0.02231889 0.5964869 0.1386275
0.02308528 0.5990682 0.1376479
0.02387084 0.6016296 0.136632
0.02467559 0.6041698 0.1355785
0.02549953 0.6066874 0.1344861
0.02634258 0.6091807 0.1333536
0.02720461 0.6116483 0.1321797
0.0280854 0.6140884 0.130963
0.02898465 0.6164992 0.1297023
0.02990199 0.6188788 0.1283962
0.03083694 0.6212253 0.1270434
0.0317889 0.6235365 0.1256426
0.03275718 0.6258103 0.1241926
0.03374095 0.6280442 0.122692
0.03473925 0.630236 0.1211397
0.03575097 0.632383 0.1195344
0.03677484 0.6344827 0.1178752
0.03780944 0.6365323 0.1161608
0.03885314 0.6385289 0.1143904
0.03990415 0.6404696 0.1125631
0.04096046 0.6423514 0.1106781
0.04201985 0.6441711 0.1087348
0.04307987 0.6459257 0.1067328
0.04413785 0.6476117 0.1046717
0.04519089 0.6492261 0.1025515
0.0462358 0.6507653 0.1003723
0.04726917 0.6522261 0.09813439
0.04828732 0.6536051 0.09583837
0.04928631 0.6548992 0.09348516
0.05026193 0.6561049 0.09107593
0.05120972 0.6572193 0.0886122
0.05212498 0.6582393 0.08609586
0.05300275 0.6591621 0.08352913
0.05383786 0.6599851 0.08091466
0.05462494 0.6607058 0.07825549
0.05535841 0.6613222 0.07555509
0.05603257 0.6618326 0.07281736
0.05664159 0.6622355 0.07004665
0.05717955 0.66253 0.06724772
0.05764051 0.6627156 0.06442582
0.05801855 0.6627925 0.06158657
0.05830781 0.662761 0.05873605
0.05850255 0.6626226 0.0558807
0.05859723 0.6623789 0.05302732
0.05858658 0.6620325 0.05018303
0.05846561 0.6615865 0.04735521
0.05822975 0.6610448 0.04455146
0.05787487 0.6604118 0.04177955
0.05739734 0.6596928 0.03904731
0.05679411 0.6588937 0.03636261
0.05606276 0.6580209 0.03373325
0.05520153 0.6570816 0.03116691
0.05420939 0.6560835 0.02867103
0.05308603 0.6550346 0.02625276
0.05183191 0.6539435 0.0239189
0.05044825 0.6528193 0.02167577
0.04893704 0.651671 0.01952921
0.04730103 0.650508 0.01748445
0.04554368 0.6493397 0.01554613
0.04366916 0.6481757 0.01371819
0.04168226 0.6470253 0.01200388
0.03958839 0.6458976 0.01040572
0.03739345 0.6448016 0.008925503
0.03510383 0.6437457 0.007564269
0.03272629 0.6427382 0.006322342
0.03026791 0.6417867 0.005199338
0.02773598 0.6408984 0.004194193
0.02513797 0.6400798 0.00330521
0.02248141 0.6393368 0.002530093
0.01977386 0.6386748 0.001866006
0.01702279 0.6380984 0.001309622
0.01423558 0.6376117 0.0008571847
0.01141942 0.6372181 0.0005045653
0.008581246 0.6369202 0.0002473231
0.005727758 0.6367202 8.076442e-05
0.00286533 0.6366198 0
0 0.6366198 0

LINES 349 1047
2 0 1
2 1 2
2 2 3
2 3 4
2 4 5
2 5 6
2 6 7
2 7 8
2 8 9
2 9 10
2 10 11
2 11 12
2 12 13
2 13 14
2 14 15
2 15 16
2 16 17
2 17 18
2 18 19
2 19 20
2 20 21
2 21 22
2 22 23
2 23 24
2 24 25
2 25 26
2 26 27
2 27 28
2 28 29
2 29 30
2 30 31
2 31 32
2 32 33
2 33 34
2 34 35
2 35 36
2 36 37
2 37 38
2 38 39
2 39 40
2 40 41
2 41 42
2 42 43
2 43 44
2 44 45
2 45 46
2 46 47
2 47 48
2 48 49
2 49 50
2 50 51
2 51 52
2 52 53
2 53 54
2 54 55
2 55 56
2 56 57
2 57 58
2 58 59
2 59 60
2 60 61
2 61 62
2 62 63
2 63 64
2 64 65
2 65 66
2 66 67
2 67 68
2 68 69
2 69 70
2 70 71
2 71 72
2 72 73
2 73 74
2 74 75
2 75 76
2 76 77
2 77 78
2 78 79
2 79 80
2 80 81
2 81 82
2 82 83
2 83 84
2 84 85
2 85 86
2 86 87
2 87 88
2 88 89
2 89 90
2 90 91
2 91 92
2 92 93
2 93 94
2 94 95
2 95 96
2 96 97
2 97 98
2 98 99
2 99 100
2 100 101
2 101 102
2 102 103
2 103 104
2 104 105
2 105 106
2 106 107
2 107 108
2 108 109
2 109 110
2 110 111
2 111 112
2 112 113
2 113 114
2 114 115
2 115 116
2 116 117
2 117 118
2 118 119
2 119 120
2 120 121
2 121 122
2 122 123
2 123 124
2 124 125
2 125 126
2 126 127
2 127 128
2 128 129
2 129 130
2 130 131
2 131 132
2 132 133
2 133 134
2 134 135
2 135 136
2 136 137
2 137 138
2 138 139
2 139 140
2 140 141
2 141 142
2 142 143
2 143 144
2 144 145
2 145 146
2 146 147
2 147 148
2 148 149
2 149 150
2 150 151
2 151 152
2 152 153
2 153 154
2 154 155
2 155 156
2 156 157
2 157 158
2 158 159
2 159 160
2 160 161
2 161 162
2 162 163
2 163 164
2 164 165
2 165 166
2 166 167
2 167 168
2 168 169
2 169 170
2 170 171
2 171 172
2 172 173
2 173 174
2 174 175
2 175 176
2 176 177
2 177 178
2 178 179
2 179 180
2 180 181
2 181 182
2 182 183
2 183 184
2 184 185
2 185 186
2 186 187
2 187 188
2 188 189
2 189 190
2 190 191
2 191 192
2 192 193
2 193 194
2 194 195
2 195 196
2 196 197
2 197 198
2 198 199
2 199 200
2 200 201
2 201 202
2 202 203
2 203 204
2 204 205
2 205 206
2 206 207
2 207 208
2 208 209
2 209 210
2 210 211
2 211 212
2 212 213
2 213 214
2 214 215
2 215 216
2 216 217
2 217 218
2 218 219
2 219 220
2 220 221
2 221 222
2 222 223
2 223 224
2 224 225
2 225 226
2 226 227
2 227 228
2 228 229
2 229 230
2 230 231
2 231 232
2 232 233
2 233 234
2 234 235
2 235 236
2 236 237
2 237 238
2 238 239
2 239 240
2 240 241
2 241 242
2 242 243
2 243 244
2 244 245
2 245 246
2 246 247
2 247 248
2 248 249
2 249 250
2 250 251
2 251 252
2 252 253
2 253 254
2 254 255
2 255 256
2 256 257
2 257 258
2 258 259
2 259 260
2 260 261
2 261 262
2 262 263
2 263 264
2 264 265
2 265 266
2 266 267
2 267 268
2 268 269
2 269 270
2 270 271
2 271 272
2 272 273
2 273 274
2 274 275
2 275 276
2 276 277
2 277 278
2 278 279
2 279 280
2 280 281
2 281 282
2 282 283
2 283 284
2 284 285
2 285 286
2 286 287
2 287 288
2 288 289
2 289 290
2 290 291
2 291 292
2 292 293
2 293 294
2 294 295
2 295 296
2 296 297
2 297 298
2 298 299
2 299 300
2 300 301
2 301 302
2 302 303
2 303 304
2 304 305
2 305 306
2 306 307
2 307 308
2 308 309
2 309 310
2 310 311
2 311 312
2 312 313
2 313 314
2 314 315
2 315 316
2 316 317
2 317 318
2 318 319
2 319 320
2 320 321
2 321 322
2 322 323
2 323 324
2 324 325
2 325 326
2 326 327
2 327 328
2 328 329
2 329 330
2 330 331
2 331 332
2 332 333
2 333 334
2 334 335
2 335 336
2 336 337
2 337 338
2 338 339
2 339 340
2 340 341
2 341 342
2 342 343
2 343 344
2 344 345
2 345 346
2 346 347
2 347 348
2 348 349


POINT_DATA 350
SCALARS a FLOAT 1
LOOKUP_TABLE default
0.0005894628
0.0005894628
0.0005894628
0.0005894628
0.0005894628
0.0005894628
0.0005894628
0.0005894628
0.0005894628
0.0005894628
0.0005894628
0.0005894628
0.0005894628
0.0005894628
0.0005894628
0.0005894628
0.0005894628
0.0005894628
0.0005894628
0.0005894628
0.0005894628
0.0005894628
0.0005894628
0.0005894628
0.0005894628
0.0005894628
0.0005894628
0.0005894628
0.0005894628
0.0005894628
0.0005894628
0.0005894628
0.0005894628
0.0005894628
0.0005894628
0.0005894628
0.0005894628
0.0005894628
0.0005894628
0.0005894628
0.0005894628
0.0005894628
0.0005894628
0.0005894628
0.0005894628
0.0005894628
0.0005894628
0.0005894628
0.0005894628
0.0005894628
0.0005894628
0.0005894628
0.0005894628
0.0005894628
0.0005894628
0.0005894628
0.0005894628
0.0005894628
0.0005894628
0.0005894628
0.0005894628
0.0005894628
0.0005894628
0.0005894628
0.0005894628
0.0005894628
0.0005894628
0.0005894628
0.0005894628
0.0005894628
0.0005894628
0.0005894628
0.0005894628
0.0005894628
0.0005894628
0.0005894628
0.0005894628
0.0005894628
0.0005894628
0.0005894628
0.0005894628
0.0005894628
0.0005894628
0.0005894628
0.0005894628
0.0005894628
0.0005894628
0.0005894628
0.0005894628
0.0005894628
0.0005894628
0.0005894628
0.0005894628
0.0005894628
0.0005894628
0.0005894628
0.0005894628
0.0005894628
0.0005894628
0.0005894628
0.0005894628
0.0005894628
0.0005894628
0.0005894628
0.0005894628
0.0005894628
0.0005894628
0.0005894628
0.0005894628
0.0005894628
0.0005894628
0.0005894628
0.0005894628
0.0005894628
0.0005894628
0.0005894628
0.0005894628
0.0005894628
0.0005894628
0.0005894628
0.0005894628
0.0005894628
0.0005894628
0.0005894628
0.0005894628
0.0005894628
0.0005894628
0.0005894628
0.0005894628
0.0005894628
0.0005894628
0.0005894628
0.0005894628
0.0005894628
0.0005894628
0.0005894628
0.0005894628
0.0005894628
0.0005894628
0.0005894628
0.0005894628
0.0005894628
0.0005894628
0.0005894628
0.0005894628
0.0005894628
0.0005894628
0.0005894628
0.0005894628
0.0005894628
0.0005894628
0.0005894628
0.0005894628
0.0005894628
0.0005894628
0.0005894628
0.0005894628
0.0005894628
0.0005894628
0.0005894628
0.0005894628
0.0005894628
0.0005894628
0.0005894628
0.0005894628
0.0005894628
0.0005894628
0.0005894628
0.0005894628
0.0005894628
0.0005894628
0.0005894628
0.0005894628
0.0005894628
0.0005894628
0.0005894628
0.0005894628
0.0005894628
0.0005894628
0.0005894628
0.0005894628
0.0005894628
0.0005894628
0.0005894628
0.0005894628
0.0005894628
0.0005894628
0.0005894628
0.0005894628
0.0005894628
0.0005894628
0.0005894628
0.0005894628
0.0005894628
0.0005894628
0.0005894628
0.0005894628
0.0005894628
0.0005894628
0.0005894628
0.0005894628
0.0005894628
0.0005894628
0.0005894628
0.0005894628
0.0005894628
0.0005894628
0.0005894628
0.0005894628
0.0005894628
0.0005894628
0.0005894628
0.0005894628
0.0005894628
0.0005894628
0.0005894628
0.0005894628
0.0005894628
0.0005894628
0.0005894628
0.0005894628
0.0005894628
0.0005894628
0.0005894628
0.0005894628
0.0005894628
0.0005894628
0.0005894628
0.0005894628
0.0005894628
0.0005894628
0.0005894628
0.0005894628
0.0005894628
0.0005894628
0.0005894628
0.0005894628
0.0005894628
0.0005894628
0.0005894628
0.0005894628
0.0005894628
0.0005894628
0.0005894628
0.0005894628
0.0005894628
0.0005894628
0.0005894628
0.0005894628
0.0005894628
0.0005894628
0.0005894628
0.0005894628
0.0005894628
0.0005894628
0.0005894628
0.0005894628
0.0005894628
0.0005894628
0.0005894628
0.0005894628
0.0005894628
0.0005894628
0.0005894628
0.0005894628
0.0005894628
0.0005894628
0.0005894628
0.0005894628
0.0005894628
0.0005894628
0.0005894628
0.0005894628
0.0005894628
0.0005894628
0.0005894628
0.0005894628
0.0005894628
0.0005894628
0.0005894628
0.0005894628
0.0005894628
0.0005894628
0.0005894628
0.0005894628
0.0005894628
0.0005894628
0.0005894628
0.0005894628
0.0005894628
0.0005894628
0.0005894628
0.0005894628
0.0005894628
0.0005894628
0.0005894628
0.0005894628
0.0005894628
0.0005894628
0.0005894628
0.0005894628
0.0005894628
0.0005894628
0.0005894628
0.0005894628
0.0005894628
0.0005894628
0.0005894628
0.0005894628
0.0005894628
0.0005894628
0.0005894628
0.0005894628
0.0005894628
0.0005894628
0.0005894628
0.0005894628
0.0005894628
0.0005894628
0.0005894628
0.0005894628
0.0005894628
0.0005894628
0.0005894628
0.0005894628
0.0005894628
0.0005894628
0.0005894628
0.0005894628
0.0005894628
0.0005894628
0.0005894628
0.0005894628
0.0005894628
0.0005894628
0.0005894628
0.0005894628
0.0005894628
0.0005894628
0.0005894628
0.0005894628
0.0005894628
0.0005894628
0.0005894628
0.0005894628
0.0005894628
0.0005894628
0.0005894628
0.0005894628
0.0005894628


SCALARS b FLOAT 1
LOOKUP_TABLE default
0.04420971
0.04420971
0.04420971
0.04420971
0.04420971
0.04420971
0.04420971
0.04420971
0.04420971
0.04420971
0.04420971
0.04420971
0.04420971
0.04420971
0.04420971
0.04420971
0.04420971
0.04420971
0.04420971
0.04420971
0.04420971
0.04420971
0.04420971
0.04420971
0.04420971
0.04420971
0.04420971
0.04420971
0.04420971
0.04420971
0.04420971
0.04420971
0.04420971
0.04420971
0.04420971
0.04420971
0.04420971
0.04420971
0.04420971
0.04420971
0.04420971
0.04420971
0.04420971
0.04420971
0.04420971
0.04420971
0.04420971
0.04420971
0.04420971
0.04420971
0.04420971
0.04420971
0.04420971
0.04420971
0.04420971
0.04420971
0.04420971
0.04420971
0.04420971
0.04420971
0.04420971
0.04420971
0.04420971
0.04420971
0.04420971
0.04420971
0.04420971
0.04420971
0.04420971
0.04420971
0.04420971
0.04420971
0.04420971
0.04420971
0.04420971
0.04420971
0.04420971
0.04420971
0.04420971
0.04420971
0.04420971
0.04420971
0.04420971
0.04420971
0.04420971
0.04420971
0.04420971
0.04420971
0.04420971
0.04420971
0.04420971
0.04420971
0.04420971
0.04420971
0.04420971
0.04420971
0.04420971
0.04420971
0.04420971
0.04420971
0.04420971
0.04420971
0.04420971
0.04420971
0.04420971
0.04420971
0.04420971
0.04420971
0.04420971
0.04420971
0.04420971
0.04420971
0.04420971
0.04420971
0.04420971
0.04420971
0.04420971
0.04420971
0.04420971
0.04420971
0.04420971
0.04420971
0.04420971
0.04420971
0.04420971
0.04420971
0.04420971
0.04420971
0.04420971
0.04420971
0.04420971
0.04420971
0.04420971
0.04420971
0.04420971
0.04420971
0.04420971
0.04420971
0.04420971
0.04420971
0.04420971
0.04420971
0.04420971
0.04420971
0.04420971
0.04420971
0.04420971
0.04420971
0.04420971
0.04420971
0.04420971
0.04420971
0.04420971
0.04420971
0.04420971
0.04420971
0.04420971
0.04420971
0.04420971
0.04420971
0.04420971
0.04420971
0.04420971
0.04420971
0.04420971
0.04420971
0.04420971
0.04420971
0.04420971
0.04420971
0.04420971
0.04420971
0.04420971
0.04420971
0.04420971
0.04420971
0.04420971
0.04420971
0.04420971
0.04420971
0.04420971
0.04420971
0.04420971
0.04420971
0.04420971
0.04420971
0.04420971
0.04420971
0.04420971
0.04420971
0.04420971
0.04420971
0.04420971
0.04420971
0.04420971
0.04420971
0.04420971
0.04420971
0.04420971
0.04420971
0.04420971
0.04420971
0.04420971
0.04420971
0.04420971
0.04420971
0.04420971
0.04420971
0.04420971
0.04420971
0.04420971
0.04420971
0.04420971
0.04420971
0.04420971
0.04420971
0.04420971
0.04420971
0.04420971
0.04420971
0.04420971
0.04420971
0.04420971
0.04420971
0.04420971
0.04420971
0.04420971
0.04420971
0.04420971
0.04420971
0.04420971
0.04420971
0.04420971
0.04420971
0.04420971
0.04420971
0.04420971
0.04420971
0.04420971
0.04420971
0.04420971
0.04420971
0.04420971
0.04420971
0.04420971
0.04420971
0.04420971
0.04420971
0.04420971
0.04420971
0.04420971
0.04420971
0.04420971
0.04420971
0.04420971
0.04420971
0.04420971
0.04420971
0.04420971
0.04420971
0.04420971
0.04420971
0.04420971
0.04420971
0.04420971
0.04420971
0.04420971
0.04420971
0.04420971
0.04420971
0.04420971
0.04420971
0.04420971
0.04420971
0.04420971
0.04420971
0.04420971
0.04420971
0.04420971
0.04420971
0.04420971
0.04420971
0.04420971
0.04420971
0.04420971
0.04420971
0.04420971
0.04420971
0.04420971
0.04420971
0.04420971
0.04420971
0.04420971
0.04420971
0.04420971
0.04420971
0.04420971
0.04420971
0.04420971
0.04420971
0.04420971
0.04420971
0.04420971
0.04420971
0.04420971
0.04420971
0.04420971
0.04420971
0.04420971
0.04420971
0.04420971
0.04420971
0.04420971
0.04420971
0.04420971
0.04420971
0.04420971
0.04420971
0.04420971
0.04420971
0.04420971
0.04420971
0.04420971
0.04420971
0.04420971
0.04420971
0.04420971
0.04420971
0.04420971
0.04420971
0.04420971
0.04420971
0.04420971
0.04420971
0.04420971
0.04420971
0.04420971
0.04420971
0.04420971
0.04420971
0.04420971
0.04420971
0.04420971
0.04420971
0.04420971
0.04420971
0.04420971
0.04420971
0.04420971
0.04420971


VECTORS d1 FLOAT
0 -0.7899624 0.6131553
-0.04498231 -0.7677102 0.6392164
-0.09076663 -0.7425875 0.66357
-0.1371708 -0.7145529 0.6860017
-0.1839934 -0.683587 0.7062968
-0.2310139 -0.6496949 0.7242438
-0.2779951 -0.6129079 0.7396369
-0.3246838 -0.5732854 0.7522794
-0.3708139 -0.5309165 0.7619873
-0.4161085 -0.4859206 0.7685928
-0.4602837 -0.4384478 0.7719472
-0.5030514 -0.3886788 0.7719249
-0.5441241 -0.3368242 0.7684259
-0.5832181 -0.2831229 0.7613791
-0.6200584 -0.2278397 0.7507441
-0.6543828 -0.1712629 0.7365135
-0.6859464 -0.1137007 0.7187139
-0.7145253 -0.05547734 0.6974065
-0.7399208 0.003071431 0.672687
-0.7619623 0.06160294 0.6446848
-0.7805106 0.1197727 0.6135615
-0.7954596 0.1772392 0.5795087
-0.8067384 0.2336693 0.5427448
-0.8143114 0.2887428 0.5035122
-0.8181791 0.3421568 0.4620732
-0.8183769 0.3936301 0.4187057
-0.8149741 0.4429067 0.373699
-0.8080714 0.4897581 0.3273493
-0.7977991 0.5339866 0.2799553
-0.7843134 0.5754259 0.2318136
-0.7677936 0.6139424 0.1832152
-0.7484379 0.6494353 0.1344416
-0.7264601 0.6818363 0.08576111
-0.7020857 0.7111082 0.03742664
-0.6755481 0.7372436 -0.01032694
-0.6470848 0.7602629 -0.05728457
-0.6169345 0.780212 -0.1032522
-0.5853337 0.7971595 -0.1480578
-0.552514 0.8111944 -0.1915513
-0.5186996 0.8224229 -0.233605
-0.4841055 0.8309657 -0.2741128
-0.4489356 0.8369554 -0.3129896
-0.4133813 0.8405336 -0.35017
-0.3776211 0.8418485 -0.3856077
-0.3418193 0.8410526 -0.4192733
-0.3061258 0.8383004 -0.4511534
-0.2706764 0.8337469 -0.4812489
-0.2355924 0.8275454 -0.5095732
-0.2009814 0.8198465 -0.5361512
-0.1669374 0.810797 -0.5610171
-0.1335415 0.8005381 -0.5842135
-0.1008629 0.7892057 -0.6057896
-0.06895921 0.7769289 -0.6258004
-0.03787755 0.76383 -0.644305
-0.007655323 0.7500243 -0.6613659
0.02167893 0.7356195 -0.677048
0.05010472 0.720716 -0.6914174
0.07760881 0.7054068 -0.704541
0.1041844 0.6897778 -0.716486
0.1298303 0.6739077 -0.7273187
0.1545506 0.6578684 -0.7371047
0.1783534 0.6417254 -0.7459078
0.2012507 0.625538 -0.7537906
0.2232577 0.6093595 -0.7608134
0.2443922 0.5932376 -0.7670343
0.2646743 0.5772151 -0.7725091
0.2841257 0.5613297 -0.7772912
0.3027697 0.5456146 -0.7814315
0.3206307 0.5300991 -0.7849783
0.3377336 0.5148084 -0.7879774
0.3541041 0.4997642 -0.790472
0.3697681 0.4849852 -0.7925029
0.3847517 0.470487 -0.7941084
0.3990807 0.4562825 -0.7953243
0.412781 0.4423823 -0.7961845
0.425878 0.4287947 -0.7967202
0.4383966 0.415526 -0.7969608
0.4503614 0.4025809 -0.7969336
0.4617962 0.3899625 -0.796664
0.4727243 0.3776722 -0.7961755
0.4831683 0.3657106 -0.7954899
0.49315 0.3540768 -0.7946274
0.5026906 0.3427692 -0.7936066
0.5118106 0.3317852 -0.7924446
0.5205296 0.3211214 -0.7911574
0.5288666 0.3107738 -0.7897593
0.5368396 0.3007381 -0.7882638
0.5444661 0.291009 -0.7866832
0.5517629 0.2815812 -0.7850285
0.558746 0.2724489 -0.78331
0.5654305 0.263606 -0.7815371
0.5718313 0.2550462 -0.7797182
0.5779621 0.2467631 -0.777861
0.5838364 0.2387498 -0.7759726
0.5894669 0.2309997 -0.7740594
0.5948656 0.2235059 -0.772127
0.600044 0.2162614 -0.7701806
0.6050132 0.2092592 -0.768225
0.6097835 0.2024925 -0.7662642
0.6143649 0.1959541 -0.7643021
0.6187668 0.1896372 -0.762342
0.622998 0.1835348 -0.760387
0.6270671 0.1776401 -0.7584397
0.6309821 0.1719462 -0.7565025
0.6347506 0.1664465 -0.7545775
0.6383798 0.1611342 -0.7526666
0.6418764 0.1560028 -0.7507715
0.6452469 0.1510459 -0.7488935
0.6484974 0.1462571 -0.7470341
0.6516336 0.1416301 -0.7451943
0.6546609 0.137159 -0.743375
0.6575844 0.1328378 -0.7415773
0.6604088 0.1286605 -0.7398018
0.6631386 0.1246216 -0.7380492
0.6657781 0.1207154 -0.7363201
0.6683312 0.1169366 -0.734615
0.6708016 0.11328 -0.7329344
0.6731929 0.1097404 -0.7312786
0.6755082 0.106313 -0.729648
0.6777506 0.102993 -0.7280429
0.6799231 0.09977581 -0.7264636
0.6820282 0.09665696 -0.7249103
0.6840685 0.09363219 -0.7233832
0.6860463 0.09069736 -0.7218826
0.6879638 0.0878485 -0.7204086
0.689823 0.08508179 -0.7189613
0.6916258 0.08239356 -0.717541
0.6933741 0.07978028 -0.7161477
0.6950694 0.07723856 -0.7147816
0.6967134 0.07476515 -0.7134428
0.6983075 0.07235692 -0.7121314
0.699853 0.07001089 -0.7108476
0.7013512 0.06772418 -0.7095914
0.7028033 0.06549405 -0.7083629
0.7042104 0.06331785 -0.7071623
0.7055736 0.06119306 -0.7059896
0.7068938 0.05911725 -0.7048449
0.7081718 0.0570881 -0.7037284
0.7094086 0.05510339 -0.70264
0.710605 0.05316096 -0.70158
0.7117616 0.05125878 -0.7005484
0.7128791 0.04939488 -0.6995452
0.7139583 0.04756737 -0.6985706
0.7149996 0.04577444 -0.6976248
0.7160036 0.04401435 -0.6967076
0.716971 0.04228543 -0.6958194
0.717902 0.04058608 -0.6949601
0.7187972 0.03891476 -0.6941298
0.7196571 0.03726998 -0.6933287
0.7204819 0.03565031 -0.6925568
0.7212721 0.03405438 -0.6918142
0.722028 0.03248087 -0.691101
0.7227498 0.0309285 -0.6904174
0.7234379 0.02939604 -0.6897633
0.7240926 0.02788231 -0.689139
0.724714 0.02638615 -0.6885444
0.7253025 0.02490647 -0.6879797
0.7258581 0.02344218 -0.6874449
0.7263811 0.02199226 -0.6869402
0.7268717 0.02055569 -0.6864656
0.7273299 0.01913149 -0.6860212
0.7277561 0.01771873 -0.6856071
0.7281502 0.01631648 -0.6852234
0.7285124 0.01492383 -0.6848701
0.7288427 0.01353992 -0.6845472
0.7291414 0.01216388 -0.684255
0.7294084 0.01079488 -0.6839933
0.7296439 0.009432087 -0.6837623
0.7298478 0.008074702 -0.683562
0.7300203 0.006721925 -0.6833924
0.7301613 0.005372974 -0.6832536
0.730271 0.004027071 -0.6831457
0.7303494 0.002683449 -0.6830685
0.7303963 0.001341344 -0.6830222
0.730412 -3.229542e-09 -0.6830068
0.7303963 -0.00134135 -0.6830222
0.7303494 -0.002683455 -0.6830685
0.730271 -0.004027077 -0.6831457
0.7301613 -0.00537298 -0.6832536
0.7300203 -0.006721932 -0.6833924
0.7298478 -0.008074708 -0.683562
0.7296439 -0.009432094 -0.6837623
0.7294084 -0.01079488 -0.6839933
0.7291414 -0.01216389 -0.684255
0.7288427 -0.01353993 -0.6845472
0.7285124 -0.01492384 -0.6848701
0.7281502 -0.01631649 -0.6852234
0.7277561 -0.01771874 -0.6856071
0.7273299 -0.0191315 -0.6860212
0.7268717 -0.02055569 -0.6864656
0.7263811 -0.02199226 -0.6869402
0.7258581 -0.02344219 -0.6874449
0.7253025 -0.02490647 -0.6879797
0.724714 -0.02638616 -0.6885444
0.7240926 -0.02788231 -0.6891389
0.7234379 -0.02939604 -0.6897633
0.7227498 -0.0309285 -0.6904174
0.722028 -0.03248087 -0.691101
0.7212721 -0.03405439 -0.6918142
0.7204819 -0.03565031 -0.6925568
0.7196571 -0.03726998 -0.6933287
0.7187972 -0.03891477 -0.6941298
0.717902 -0.04058609 -0.6949601
0.716971 -0.04228544 -0.6958194
0.7160036 -0.04401436 -0.6967076
0.7149996 -0.04577444 -0.6976248
0.7139583 -0.04756737 -0.6985706
0.7128791 -0.04939488 -0.6995452
0.7117616 -0.05125879 -0.7005484
0.710605 -0.05316097 -0.70158
0.7094086 -0.05510339 -0.70264
0.7081718 -0.05708811 -0.7037284
0.7068938 -0.05911726 -0.7048449
0.7055736 -0.06119307 -0.7059896
0.7042104 -0.06331786 -0.7071623
0.7028033 -0.06549405 -0.7083629