# vtk DataFile Version 2.0
Written badly by Kevin Korner
ASCII
DATASET POLYDATA
POINTS 350 FLOAT
0 0 0
0.00286533 0 0
0.005730149 8.957549e-06 5.331448e-05
0.008593441 2.788088e-05 0.0001596703
0.0114542 5.776462e-05 0.0003187473
0.01431141 9.958843e-05 0.0005301793
0.01716408 0.0001543157 0.0007935547
0.02001123 0.0002228923 0.001108418
0.02285189 0.0003062453 0.001474269
0.02568508 0.0004052821 0.001890567
0.02850987 0.000520889 0.002356731
0.03132533 0.0006539302 0.002872137
0.03413052 0.0008052471 0.003436127
0.03692457 0.0009756572 0.004048003
0.03970658 0.001165953 0.004707034
0.04247569 0.001376902 0.005412452
0.04523107 0.001609246 0.00616346
0.0479719 0.001863697 0.006959229
0.05069737 0.002140944 0.007798902
0.05340671 0.002441645 0.008681592
0.05609918 0.00276643 0.00960639
0.05877404 0.003115902 0.01057236
0.0614306 0.003490632 0.01157855
0.06406816 0.003891166 0.01262398
0.0666861 0.004318016 0.01370765
0.06928377 0.004771667 0.01482855
0.07186058 0.005252575 0.01598566
0.07441595 0.005761165 0.01717793
0.07694934 0.006297833 0.01840431
0.07946024 0.006862946 0.01966374
0.08194814 0.007456843 0.02095515
0.08441259 0.008079831 0.02227746
0.08685314 0.008732192 0.02362959
0.08926938 0.009414178 0.02501045
0.09166093 0.01012601 0.02641896
0.09402743 0.0108679 0.02785402
0.09636855 0.01163999 0.02931455
0.09868397 0.01244246 0.03079947
0.1009734 0.0132754 0.03230769
0.1032367 0.01413891 0.03383813
0.1054734 0.01503306 0.03538973
0.1076835 0.0159579 0.03696142
0.1098668 0.01691345 0.03855215
0.112023 0.0178997 0.04016088
0.1141522 0.01891664 0.04178656
0.116254 0.01996421 0.04342818
0.1183285 0.02104236 0.04508472
0.1203756 0.02215099 0.04675519
0.1223952 0.02329001 0.0484386
0.1243873 0.0244593 0.05013399
0.126352 0.02565871 0.0518404
0.1282891 0.02688809 0.0535569
0.1301987 0.02814727 0.05528256
0.1320809 0.02943605 0.05701648
0.1339357 0.03075425 0.05875777
0.1357632 0.03210164 0.06050558
0.1375635 0.033478 0.06225904
0.1393368 0.03488309 0.06401732
0.141083 0.03631665 0.06577962
0.1428024 0.03777842 0.06754514
0.144495 0.03926813 0.0693131
0.1461612 0.04078551 0.07108275
0.147801 0.04233025 0.07285336
0.1494145 0.04390206 0.07462421
0.1510021 0.04550064 0.07639461
0.1525638 0.04712567 0.07816387
0.1541 0.04877684 0.07993134
0.1556108 0.05045382 0.08169638
0.1570964 0.05215627 0.08345837
0.1585572 0.05388388 0.08521672
0.1599932 0.05563629 0.08697084
0.1614048 0.05741318 0.08872018
0.1627922 0.05921419 0.09046418
0.1641557 0.06103898 0.09220232
0.1654956 0.0628872 0.0939341
0.166812 0.06475851 0.09565902
0.1681053 0.06665255 0.09737662
0.1693757 0.06856897 0.09908643
0.1706235 0.07050742 0.100788
0.171849 0.07246755 0.102481
0.1730525 0.07444902 0.1041649
0.1742342 0.07645146 0.1058394
0.1753945 0.07847453 0.107504
0.1765335 0.08051789 0.1091585
0.1776517 0.08258119 0.1108025
0.1787492 0.08466408 0.1124356
0.1798264 0.08676623 0.1140576
0.1808835 0.0888873 0.1156681
0.1819208 0.09102695 0.1172669
0.1829386 0.09318484 0.1188536
0.1839372 0.09536066 0.120428
0.1849168 0.09755407 0.1219899
0.1858778 0.09976474 0.1235389
0.1868203 0.1019924 0.1250749
0.1877447 0.1042366 0.1265977
0.1886513 0.1064972 0.128107
0.1895402 0.1087738 0.1296027
0.1904118 0.1110662 0.1310845
0.1912664 0.1133739 0.1325522
0.1921041 0.1156967 0.1340057
0.1929252 0.1180344 0.1354448
0.19373 0.1203866 0.1368694
0.1945188 0.1227531 0.1382793
0.1952917 0.1251336 0.1396743
0.196049 0.1275278 0.1410543
0.1967909 0.1299354 0.1424192
0.1975178 0.1323562 0.1437689
0.1982297 0.13479 0.1451031
0.1989269 0.1372364 0.1464219
0.1996097 0.1396952 0.147725
0.2002782 0.1421662 0.1490124
0.2009327 0.1446491 0.1502839
0.2015734 0.1471437 0.1515395
0.2022004 0.1496498 0.1527791
0.202814 0.1521671 0.1540025
0.2034143 0.1546955 0.1552096
0.2040016 0.1572346 0.1564004
0.204576 0.1597843 0.1575748
0.2051377 0.1623444 0.1587326
0.2056868 0.1649147 0.1598738
0.2062237 0.1674949 0.1609983
0.2067483 0.1700849 0.1621059
0.2072609 0.1726844 0.1631967
0.2077616 0.1752933 0.1642704
0.2082506 0.1779114 0.1653271
0.2087281 0.1805385 0.1663665
0.209194 0.1831745 0.1673887
0.2096488 0.185819 0.1683935
0.2100923 0.1884721 0.1693808
0.2105248 0.1911334 0.1703505
0.2109464 0.1938029 0.1713026
0.2113572 0.1964803 0.1722368
0.2117574 0.1991655 0.1731532
0.212147 0.2018583 0.1740515
0.2125262 0.2045586 0.1749317
0.212895 0.2072662 0.1757937
0.2132536 0.2099809 0.1766373
0.213602 0.2127027 0.1774624
0.2139404 0.2154312 0.178269
0.2142689 0.2181665 0.1790567
0.2145875 0.2209083 0.1798256
0.2148962 0.2236565 0.1805755
0.2151953 0.2264109 0.1813063
0.2154847 0.2291713 0.1820177
0.2157646 0.2319377 0.1827096
0.216035 0.2347099 0.183382
0.2162959 0.2374877 0.1840346
0.2165474 0.240271 0.1846672
0.2167896 0.2430596 0.1852798
0.2170226 0.2458533 0.1858721
0.2172463 0.2486521 0.1864439
0.2174609 0.2514557 0.1869951
0.2176663 0.254264 0.1875255
0.2178626 0.2570769 0.1880348
0.2180499 0.2598941 0.188523
0.2182281 0.2627155 0.1889898
0.2183973 0.265541 0.189435
0.2185576 0.2683703 0.1898584
0.2187089 0.2712034 0.1902598
0.2188513 0.2740399 0.190639
0.2189847 0.2768798 0.1909958
0.2191093 0.2797228 0.19133
0.2192249 0.2825689 0.1916414
0.2193317 0.2854176 0.1919298
0.2194295 0.288269 0.1921949
0.2195185 0.2911227 0.1924367
0.2195986 0.2939786 0.1926549
0.2196699 0.2968364 0.1928494
0.2197322 0.299696 0.1930199
0.2197856 0.3025571 0.1931664
0.2198302 0.3054195 0.1932887
0.2198658 0.3082829 0.1933866
0.2198925 0.3111472 0.1934602
0.2199104 0.314012 0.1935093
0.2199193 0.3168772 0.1935338
0.2199193 0.3197426 0.1935338
0.2199104 0.3226078 0.1935093
0.2198925 0.3254726 0.1934602
0.2198658 0.3283369 0.1933866
0.2198302 0.3312003 0.1932887
0.2197856 0.3340627 0.1931664
0.2197322 0.3369238 0.1930199
0.2196699 0.3397833 0.1928494
0.2195986 0.3426412 0.1926549
0.2195185 0.3454971 0.1924367
0.2194295 0.3483508 0.1921949
0.2193317 0.3512021 0.1919298
0.2192249 0.3540509 0.1916414
0.2191093 0.3568969 0.19133
0.2189847 0.35974 0.1909958
0.2188513 0.3625799 0.190639
0.2187089 0.3654164 0.1902598
0.2185576 0.3682495 0.1898584
0.2183973 0.3710788 0.189435
0.2182281 0.3739043 0.1889898
0.2180499 0.3767257 0.188523
0.2178626 0.3795429 0.1880348
0.2176663 0.3823558 0.1875255
0.2174609 0.3851641 0.1869951
0.2172463 0.3879677 0.1864439
0.2170226 0.3907665 0.1858721
0.2167896 0.3935602 0.1852798
0.2165474 0.3963488 0.1846672
0.2162959 0.3991321 0.1840346
0.216035 0.4019099 0.183382
0.2157646 0.404682 0.1827096
0.2154847 0.4074484 0.1820177
0.2151953 0.4102089 0.1813063
0.2148962 0.4129633 0.1805755
0.2145875 0.4157115 0.1798256
0.2142689 0.4184533 0.1790567
0.2139404 0.4211885 0.178269
0.213602 0.4239171 0.1774624
0.2132536 0.4266389 0.1766373
0.212895 0.4293536 0.1757937
0.2125262 0.4320612 0.1749317
0.212147 0.4347615 0.1740515
0.2117574 0.4374543 0.1731532
0.2113572 0.4401395 0.1722368
0.2109464 0.4428169 0.1713026
0.2105248 0.4454864 0.1703505
0.2100923 0.4481477 0.1693808
0.2096488 0.4508007 0.1683935
0.209194 0.4534453 0.1673887
0.2087281 0.4560812 0.1663665
0.2082506 0.4587083 0.1653271
0.2077616 0.4613264 0.1642704
0.2072609 0.4639354 0.1631967
0.2067483 0.4665349 0.1621059
0.2062237 0.4691249 0.1609983
0.2056868 0.4717051 0.1598738
0.2051377 0.4742753 0.1587326
0.204576 0.4768354 0.1575748
0.2040016 0.4793852 0.1564004
0.2034143 0.4819243 0.1552096
0.202814 0.4844526 0.1540025
0.2022004 0.48697 0.1527791
0.2015734 0.489476 0.1515395
0.2009327 0.4919707 0.1502839
0.2002782 0.4944536 0.1490124
0.1996097 0.4969246 0.147725
0.1989269 0.4993834 0.1464219
0.1982297 0.5018298 0.1451031
0.1975178 0.5042635 0.1437689
0.1967909 0.5066844 0.1424192
0.196049 0.509092 0.1410543
0.1952917 0.5114862 0.1396743
0.1945188 0.5138666 0.1382793
0.19373 0.5162331 0.1368694
0.1929252 0.5185854 0.1354448
0.1921041 0.520923 0.1340057
0.1912664 0.5232459 0.1325522
0.1904118 0.5255536 0.1310845
0.1895402 0.5278459 0.1296027
0.1886513 0.5301225 0.128107
0.1877447 0.5323831 0.1265977
0.1868203 0.5346274 0.1250749
0.1858778 0.536855 0.1235389
0.1849168 0.5390657 0.1219899
0.1839372 0.5412591 0.120428
0.1829386 0.5434349 0.1188536
0.1819208 0.5455928 0.1172669
0.1808835 0.5477325 0.1156681
0.1798264 0.5498535 0.1140576
0.1787492 0.5519557 0.1124356
0.1776517 0.5540386 0.1108025
0.1765335 0.5561019 0.1091585
0.1753945 0.5581452 0.107504
0.1742342 0.5601683 0.1058394
0.1730525 0.5621708 0.1041649
0.171849 0.5641522 0.102481
0.1706235 0.5661124 0.100788
0.1693757 0.5680508 0.09908643
0.1681053 0.5699672 0.09737662
0.166812 0.5718613 0.09565902
0.1654956 0.5737326 0.0939341
0.1641557 0.5755808 0.09220232
0.1627922 0.5774056 0.09046418
0.1614048 0.5792066 0.08872018
0.1599932 0.5809835 0.08697084
0.1585572 0.5827359 0.08521672
0.1570964 0.5844635 0.08345837
0.1556108 0.586166 0.08169638
0.1541 0.5878429 0.07993134
0.1525638 0.5894941 0.07816387
0.1510021 0.5911191 0.07639461
0.1494145 0.5927177 0.07462421
0.147801 0.5942895 0.07285336
0.1461612 0.5958343 0.07108275
0.144495 0.5973516 0.0693131
0.1428024 0.5988414 0.06754514
0.141083 0.6003031 0.06577962
0.1393368 0.6017367 0.06401732
0.1375635 0.6031418 0.06225904
0.1357632 0.6045181 0.06050558
0.1339357 0.6058655 0.05875777
0.1320809 0.6071837 0.05701648
0.1301987 0.6084725 0.05528256
0.1282891 0.6097317 0.0535569
0.126352 0.6109611 0.0518404
0.1243873 0.6121605 0.05013399
0.1223952 0.6133298 0.0484386
0.1203756 0.6144688 0.04675519
0.1183285 0.6155774 0.04508472
0.116254 0.6166556 0.04342818
0.1141522 0.6177031 0.04178656
0.112023 0.6187201 0.04016088
0.1098668 0.6197063 0.03855215
0.1076835 0.6206619 0.03696142
0.1054734 0.6215867 0.03538973
0.1032367 0.6224809 0.03383813
0.1009734 0.6233444 0.03230769
0.09868397 0.6241773 0.03079947
0.09636855 0.6249798 0.02931455
0.09402743 0.6257519 0.02785402
0.09166093 0.6264938 0.02641896
0.08926938 0.6272056 0.02501045
0.08685314 0.6278876 0.02362959
0.08441259 0.6285399 0.02227746
0.08194814 0.6291629 0.02095515
0.07946024 0.6297568 0.01966374
0.07694934 0.6303219 0.01840431
0.07441595 0.6308586 0.01717793
0.07186058 0.6313672 0.01598566
0.06928377 0.6318481 0.01482855
0.0666861 0.6323018 0.01370765
0.06406816 0.6327286 0.01262398
0.0614306 0.6331291 0.01157855
0.05877404 0.6335039 0.01057236
0.05609918 0.6338533 0.00960639
0.05340671 0.6341781 0.008681592
0.05069737 0.6344788 0.007798902
0.0479719 0.6347561 0.006959229
0.04523107 0.6350105 0.00616346
0.04247569 0.6352429 0.005412452
0.03970658 0.6354538 0.004707034
0.03692457 0.6356441 0.004048003
0.03413052 0.6358145 0.003436127
0.03132533 0.6359658 0.002872137
0.02850987 0.6360989 0.002356731
0.02568508 0.6362145 0.001890567
0.02285189 0.6363135 0.001474269
0.02001123 0.6363969 0.001108418
0.01716408 0.6364655 0.0007935547
0.01431141 0.6365202 0.0005301793
0.0114542 0.636562 0.0003187473
0.008593441 0.6365919 0.0001596703
0.005730149 0.6366108 5.331448e-05
0.00286533 0.6366198 0
0 0.6366198 0

LINES 349 1047
2 0 1
2 1 2
2 2 3
2 3 4
2 4 5
2 5 6
2 6 7
2 7 8
2 8 9
2 9 10
2 10 11
2 11 12
2 12 13
2 13 14
2 14 15
2 15 16
2 16 17
2 17 18
2 18 19
2 19 20
2 20 21
2 21 22
2 22 23
2 23 24
2 24 25
2 25 26
2 26 27
2 27 28
2 28 29
2 29 30
2 30 31
2 31 32
2 32 33
2 33 34
2 34 35
2 35 36
2 36 37
2 37 38
2 38 39
2 39 40
2 40 41
2 41 42
2 42 43
2 43 44
2 44 45
2 45 46
2 46 47
2 47 48
2 48 49
2 49 50
2 50 51
2 51 52
2 52 53
2 53 54
2 54 55
2 55 56
2 56 57
2 57 58
2 58 59
2 59 60
2 60 61
2 61 62
2 62 63
2 63 64
2 64 65
2 65 66
2 66 67
2 67 68
2 68 69
2 69 70
2 70 71
2 71 72
2 72 73
2 73 74
2 74 75
2 75 76
2 76 77
2 77 78
2 78 79
2 79 80
2 80 81
2 81 82
2 82 83
2 83 84
2 84 85
2 85 86
2 86 87
2 87 88
2 88 89
2 89 90
2 90 91
2 91 92
2 92 93
2 93 94
2 94 95
2 95 96
2 96 97
2 97 98
2 98 99
2 99 100
2 100 101
2 101 102
2 102 103
2 103 104
2 104 105
2 105 106
2 106 107
2 107 108
2 108 109
2 109 110
2 110 111
2 111 112
2 112 113
2 113 114
2 114 115
2 115 116
2 116 117
2 117 118
2 118 119
2 119 120
2 120 121
2 121 122
2 122 123
2 123 124
2 124 125
2 125 126
2 126 127
2 127 128
2 128 129
2 129 130
2 130 131
2 131 132
2 132 133
2 133 134
2 134 135
2 135 136
2 136 137
2 137 138
2 138 139
2 139 140
2 140 141
2 141 142
2 142 143
2 143 144
2 144 145
2 145 146
2 146 147
2 147 148
2 148 149
2 149 150
2 150 151
2 151 152
2 152 153
2 153 154
2 154 155
2 155 156
2 156 157
2 157 158
2 158 159
2 159 160
2 160 161
2 161 162
2 162 163
2 163 164
2 164 165
2 165 166
2 166 167
2 167 168
2 168 169
2 169 170
2 170 171
2 171 172
2 172 173
2 173 174
2 174 175
2 175 176
2 176 177
2 177 178
2 178 179
2 179 180
2 180 181
2 181 182
2 182 183
2 183 184
2 184 185
2 185 186
2 186 187
2 187 188
2 188 189
2 189 190
2 190 191
2 191 192
2 192 193
2 193 194
2 194 195
2 195 196
2 196 197
2 197 198
2 198 199
2 199 200
2 200 201
2 201 202
2 202 203
2 203 204
2 204 205
2 205 206
2 206 207
2 207 208
2 208 209
2 209 210
2 210 211
2 211 212
2 212 213
2 213 214
2 214 215
2 215 216
2 216 217
2 217 218
2 218 219
2 219 220
2 220 221
2 221 222
2 222 223
2 223 224
2 224 225
2 225 226
2 226 227
2 227 228
2 228 229
2 229 230
2 230 231
2 231 232
2 232 233
2 233 234
2 234 235
2 235 236
2 236 237
2 237 238
2 238 239
2 239 240
2 240 241
2 241 242
2 242 243
2 243 244
2 244 245
2 245 246
2 246 247
2 247 248
2 248 249
2 249 250
2 250 251
2 251 252
2 252 253
2 253 254
2 254 255
2 255 256
2 256 257
2 257 258
2 258 259
2 259 260
2 260 261
2 261 262
2 262 263
2 263 264
2 264 265
2 265 266
2 266 267
2 267 268
2 268 269
2 269 270
2 270 271
2 271 272
2 272 273
2 273 274
2 274 275
2 275 276
2 276 277
2 277 278
2 278 279
2 279 280
2 280 281
2 281 282
2 282 283
2 283 284
2 284 285
2 285 286
2 286 287
2 287 288
2 288 289
2 289 290
2 290 291
2 291 292
2 292 293
2 293 294
2 294 295
2 295 296
2 296 297
2 297 298
2 298 299
2 299 300
2 300 301
2 301 302
2 302 303
2 303 304
2 304 305
2 305 306
2 306 307
2 307 308
2 308 309
2 309 310
2 310 311
2 311 312
2 312 313
2 313 314
2 314 315
2 315 316
2 316 317
2 317 318
2 318 319
2 319 320
2 320 321
2 321 322
2 322 323
2 323 324
2 324 325
2 325 326
2 326 327
2 327 328
2 328 329
2 329 330
2 330 331
2 331 332
2 332 333
2 333 334
2 334 335
2 335 336
2 336 337
2 337 338
2 338 339
2 339 340
2 340 341
2 341 342
2 342 343
2 343 344
2 344 345
2 345 346
2 346 347
2 347 348
2 348 349


POINT_DATA 350
SCALARS a FLOAT 1
LOOKUP_TABLE default
0.0005894628
0.0005894628
0.0005894628
0.0005894628
0.0005894628
0.0005894628
0.0005894628
0.0005894628
0.0005894628
0.0005894628
0.0005894628
0.0005894628
0.0005894628
0.0005894628
0.0005894628
0.0005894628
0.0005894628
0.0005894628
0.0005894628
0.0005894628
0.0005894628
0.0005894628
0.0005894628
0.0005894628
0.0005894628
0.0005894628
0.0005894628
0.0005894628
0.0005894628
0.0005894628
0.0005894628
0.0005894628
0.0005894628
0.0005894628
0.0005894628
0.0005894628
0.0005894628
0.0005894628
0.0005894628
0.0005894628
0.0005894628
0.0005894628
0.0005894628
0.0005894628
0.0005894628
0.0005894628
0.0005894628
0.0005894628
0.0005894628
0.0005894628
0.0005894628
0.0005894628
0.0005894628
0.0005894628
0.0005894628
0.0005894628
0.0005894628
0.0005894628
0.0005894628
0.0005894628
0.0005894628
0.0005894628
0.0005894628
0.0005894628
0.0005894628
0.0005894628
0.0005894628
0.0005894628
0.0005894628
0.0005894628
0.0005894628
0.0005894628
0.0005894628
0.0005894628
0.0005894628
0.0005894628
0.0005894628
0.0005894628
0.0005894628
0.0005894628
0.0005894628
0.0005894628
0.0005894628
0.0005894628
0.0005894628
0.0005894628
0.0005894628
0.0005894628
0.0005894628
0.0005894628
0.0005894628
0.0005894628
0.0005894628
0.0005894628
0.0005894628
0.0005894628
0.0005894628
0.0005894628
0.0005894628
0.0005894628
0.0005894628
0.0005894628
0.0005894628
0.0005894628
0.0005894628
0.0005894628
0.0005894628
0.0005894628
0.0005894628
0.0005894628
0.0005894628
0.0005894628
0.0005894628
0.0005894628
0.0005894628
0.0005894628
0.0005894628
0.0005894628
0.0005894628
0.0005894628
0.0005894628
0.0005894628
0.0005894628
0.0005894628
0.0005894628
0.0005894628
0.0005894628
0.0005894628
0.0005894628
0.0005894628
0.0005894628
0.0005894628
0.0005894628
0.0005894628
0.0005894628
0.0005894628
0.0005894628
0.0005894628
0.0005894628
0.0005894628
0.0005894628
0.0005894628
0.0005894628
0.0005894628
0.0005894628
0.0005894628
0.0005894628
0.0005894628
0.0005894628
0.0005894628
0.0005894628
0.0005894628
0.0005894628
0.0005894628
0.0005894628
0.0005894628
0.0005894628
0.0005894628
0.0005894628
0.0005894628
0.0005894628
0.0005894628
0.0005894628
0.0005894628
0.0005894628
0.0005894628
0.0005894628
0.0005894628
0.0005894628
0.0005894628
0.0005894628
0.0005894628
0.0005894628
0.0005894628
0.0005894628
0.0005894628
0.0005894628
0.0005894628
0.0005894628
0.0005894628
0.0005894628
0.0005894628
0.0005894628
0.0005894628
0.0005894628
0.0005894628
0.0005894628
0.0005894628
0.0005894628
0.0005894628
0.0005894628
0.0005894628
0.0005894628
0.0005894628
0.0005894628
0.0005894628
0.0005894628
0.0005894628
0.0005894628
0.0005894628
0.0005894628
0.0005894628
0.0005894628
0.0005894628
0.0005894628
0.0005894628
0.0005894628
0.0005894628
0.0005894628
0.0005894628
0.0005894628
0.0005894628
0.0005894628
0.0005894628
0.0005894628
0.0005894628
0.0005894628
0.0005894628
0.0005894628
0.0005894628
0.0005894628
0.0005894628
0.0005894628
0.0005894628
0.0005894628
0.0005894628
0.0005894628
0.0005894628
0.0005894628
0.0005894628
0.0005894628
0.0005894628
0.0005894628
0.0005894628
0.0005894628
0.0005894628
0.0005894628
0.0005894628
0.0005894628
0.0005894628
0.0005894628
0.0005894628
0.0005894628
0.0005894628
0.0005894628
0.0005894628
0.0005894628
0.0005894628
0.0005894628
0.0005894628
0.0005894628
0.0005894628
0.0005894628
0.0005894628
0.0005894628
0.0005894628
0.0005894628
0.0005894628
0.0005894628
0.0005894628
0.0005894628
0.0005894628
0.0005894628
0.0005894628
0.0005894628
0.0005894628
0.0005894628
0.0005894628
0.0005894628
0.0005894628
0.0005894628
0.0005894628
0.0005894628
0.0005894628
0.0005894628
0.0005894628
0.0005894628
0.0005894628
0.0005894628
0.0005894628
0.0005894628
0.0005894628
0.0005894628
0.0005894628
0.0005894628
0.0005894628
0.0005894628
0.0005894628
0.0005894628
0.0005894628
0.0005894628
0.0005894628
0.0005894628
0.0005894628
0.0005894628
0.0005894628
0.0005894628
0.0005894628
0.0005894628
0.0005894628
0.0005894628
0.0005894628
0.0005894628
0.0005894628
0.0005894628
0.0005894628
0.0005894628
0.0005894628
0.0005894628
0.0005894628
0.0005894628
0.0005894628
0.0005894628
0.0005894628
0.0005894628
0.0005894628
0.0005894628
0.0005894628
0.0005894628
0.0005894628
0.0005894628
0.0005894628
0.0005894628
0.0005894628
0.0005894628
0.0005894628
0.0005894628
0.0005894628
0.0005894628
0.0005894628
0.0005894628
0.0005894628
0.0005894628
0.0005894628
0.0005894628
0.0005894628
0.0005894628
0.0005894628
0.0005894628
0.0005894628
0.0005894628
0.0005894628
0.0005894628
0.0005894628
0.0005894628
0.0005894628
0.0005894628
0.0005894628
0.0005894628
0.0005894628


SCALARS b FLOAT 1
LOOKUP_TABLE default
0.04420971
0.04420971
0.04420971
0.04420971
0.04420971
0.04420971
0.04420971
0.04420971
0.04420971
0.04420971
0.04420971
0.04420971
0.04420971
0.04420971
0.04420971
0.04420971
0.04420971
0.04420971
0.04420971
0.04420971
0.04420971
0.04420971
0.04420971
0.04420971
0.04420971
0.04420971
0.04420971
0.04420971
0.04420971
0.04420971
0.04420971
0.04420971
0.04420971
0.04420971
0.04420971
0.04420971
0.04420971
0.04420971
0.04420971
0.04420971
0.04420971
0.04420971
0.04420971
0.04420971
0.04420971
0.04420971
0.04420971
0.04420971
0.04420971
0.04420971
0.04420971
0.04420971
0.04420971
0.04420971
0.04420971
0.04420971
0.04420971
0.04420971
0.04420971
0.04420971
0.04420971
0.04420971
0.04420971
0.04420971
0.04420971
0.04420971
0.04420971
0.04420971
0.04420971
0.04420971
0.04420971
0.04420971
0.04420971
0.04420971
0.04420971
0.04420971
0.04420971
0.04420971
0.04420971
0.04420971
0.04420971
0.04420971
0.04420971
0.04420971
0.04420971
0.04420971
0.04420971
0.04420971
0.04420971
0.04420971
0.04420971
0.04420971
0.04420971
0.04420971
0.04420971
0.04420971
0.04420971
0.04420971
0.04420971
0.04420971
0.04420971
0.04420971
0.04420971
0.04420971
0.04420971
0.04420971
0.04420971
0.04420971
0.04420971
0.04420971
0.04420971
0.04420971
0.04420971
0.04420971
0.04420971
0.04420971
0.04420971
0.04420971
0.04420971
0.04420971
0.04420971
0.04420971
0.04420971
0.04420971
0.04420971
0.04420971
0.04420971
0.04420971
0.04420971
0.04420971
0.04420971
0.04420971
0.04420971
0.04420971
0.04420971
0.04420971
0.04420971
0.04420971
0.04420971
0.04420971
0.04420971
0.04420971
0.04420971
0.04420971
0.04420971
0.04420971
0.04420971
0.04420971
0.04420971
0.04420971
0.04420971
0.04420971
0.04420971
0.04420971
0.04420971
0.04420971
0.04420971
0.04420971
0.04420971
0.04420971
0.04420971
0.04420971
0.04420971
0.04420971
0.04420971
0.04420971
0.04420971
0.04420971
0.04420971
0.04420971
0.04420971
0.04420971
0.04420971
0.04420971
0.04420971
0.04420971
0.04420971
0.04420971
0.04420971
0.04420971
0.04420971
0.04420971
0.04420971
0.04420971
0.04420971
0.04420971
0.04420971
0.04420971
0.04420971
0.04420971
0.04420971
0.04420971
0.04420971
0.04420971
0.04420971
0.04420971
0.04420971
0.04420971
0.04420971
0.04420971
0.04420971
0.04420971
0.04420971
0.04420971
0.04420971
0.04420971
0.04420971
0.04420971
0.04420971
0.04420971
0.04420971
0.04420971
0.04420971
0.04420971
0.04420971
0.04420971
0.04420971
0.04420971
0.04420971
0.04420971
0.04420971
0.04420971
0.04420971
0.04420971
0.04420971
0.04420971
0.04420971
0.04420971
0.04420971
0.04420971
0.04420971
0.04420971
0.04420971
0.04420971
0.04420971
0.04420971
0.04420971
0.04420971
0.04420971
0.04420971
0.04420971
0.04420971
0.04420971
0.04420971
0.04420971
0.04420971
0.04420971
0.04420971
0.04420971
0.04420971
0.04420971
0.04420971
0.04420971
0.04420971
0.04420971
0.04420971
0.04420971
0.04420971
0.04420971
0.04420971
0.04420971
0.04420971
0.04420971
0.04420971
0.04420971
0.04420971
0.04420971
0.04420971
0.04420971
0.04420971
0.04420971
0.04420971
0.04420971
0.04420971
0.04420971
0.04420971
0.04420971
0.04420971
0.04420971
0.04420971
0.04420971
0.04420971
0.04420971
0.04420971
0.04420971
0.04420971
0.04420971
0.04420971
0.04420971
0.04420971
0.04420971
0.04420971
0.04420971
0.04420971
0.04420971
0.04420971
0.04420971
0.04420971
0.04420971
0.04420971
0.04420971
0.04420971
0.04420971
0.04420971
0.04420971
0.04420971
0.04420971
0.04420971
0.04420971
0.04420971
0.04420971
0.04420971
0.04420971
0.04420971
0.04420971
0.04420971
0.04420971
0.04420971
0.04420971
0.04420971
0.04420971
0.04420971
0.04420971
0.04420971
0.04420971
0.04420971
0.04420971
0.04420971
0.04420971
0.04420971
0.04420971
0.04420971
0.04420971
0.04420971
0.04420971
0.04420971
0.04420971
0.04420971
0.04420971
0.04420971
0.04420971
0.04420971
0.04420971
0.04420971
0.04420971
0.04420971
0.04420971
0.04420971
0.04420971
0.04420971


VECTORS d1 FLOAT
0 0.1561242 0.9877374
-0.01886668 0.1750936 0.984371
-0.03769419 0.1939064 0.9802956
-0.0564656 0.2125463 0.9755182
-0.07516421 0.2309975 0.9700467
-0.09377352 0.2492444 0.9638899
-0.1122773 0.267272 0.9570577
-0.1306597 0.2850658 0.9495607
-0.1489051 0.3026116 0.9414104
-0.1669983 0.3198959 0.932619
-0.1849243 0.3369054 0.9231997
-0.2026689 0.3536278 0.9131663
-0.2202181 0.3700511 0.9025332
-0.2375582 0.3861638 0.8913157
-0.2546764 0.4019552 0.8795294
-0.27156 0.417415 0.8671908
-0.2881972 0.4325339 0.8543166
-0.3045763 0.4473027 0.8409243
-0.3206865 0.4617133 0.8270315
-0.3365175 0.4757579 0.8126564
-0.3520595 0.4894297 0.7978175
-0.3673032 0.5027222 0.7825335
-0.3822402 0.5156298 0.7668235
-0.3968624 0.5281473 0.7507068
-0.4111623 0.5402704 0.7342026
-0.4251332 0.5519953 0.7173304
-0.4387689 0.5633187 0.7001099
-0.4520637 0.5742382 0.6825606
-0.4650125 0.5847517 0.6647021
-0.4776109 0.5948578 0.6465539
-0.4898551 0.6045559 0.6281355
-0.5017417 0.6138456 0.6094661
-0.5132679 0.6227272 0.590565
-0.5244314 0.6312015 0.5714511
-0.5352307 0.63927 0.5521431
-0.5456646 0.6469343 0.5326595
-0.5557323 0.6541969 0.5130185
-0.5654336 0.6610605 0.4932381
-0.574769 0.6675282 0.4733358
-0.583739 0.6736036 0.4533287
-0.592345 0.6792907 0.4332339
-0.6005884 0.6845938 0.4130675
-0.6084714 0.6895177 0.3928458
-0.6159963 0.6940673 0.3725844
-0.6231659 0.6982479 0.3522983
-0.6299833 0.7020652 0.3320023
-0.6364519 0.7055249 0.3117107
-0.6425755 0.7086332 0.2914373
-0.6483581 0.7113964 0.2711953
-0.6538041 0.713821 0.2509976
-0.658918 0.7159137 0.2308565
-0.6637045 0.7176813 0.2107839
-0.6681689 0.7191308 0.1907912
-0.6723162 0.7202693 0.1708892
-0.6761518 0.721104 0.1510884
-0.6796815 0.7216423 0.1313985
-0.6829107 0.7218914 0.1118291
-0.6858456 0.7218588 0.09238898
-0.6884919 0.721552 0.07308674
-0.6908558 0.7209784 0.05393033
-0.6929434 0.7201455 0.03492727
-0.694761 0.7190608 0.01608466
-0.6963149 0.7177317 -0.002590871
-0.6976114 0.7161658 -0.02109312
-0.6986569 0.7143703 -0.0394163
-0.6994578 0.7123526 -0.05755507
-0.7000205 0.71012 -0.07550446
-0.7003515 0.7076796 -0.09325993
-0.700457 0.7050386 -0.1108173
-0.7003436 0.7022041 -0.1281728
-0.7000176 0.6991828 -0.1453229
-0.6994852 0.6959818 -0.1622646
-0.6987528 0.6926075 -0.1789952
-0.6978266 0.6890667 -0.1955121
-0.6967128 0.6853658 -0.2118134
-0.6954174 0.6815112 -0.2278972
-0.6939465 0.6775089 -0.243762
-0.692306 0.6733651 -0.2594066
-0.6905018 0.6690857 -0.2748299
-0.6885397 0.6646765 -0.2900314
-0.6864254 0.660143 -0.3050105
-0.6841644 0.6554907 -0.3197671
-0.6817623 0.6507249 -0.334301
-0.6792245 0.6458509 -0.3486126
-0.6765563 0.6408734 -0.3627021
-0.6737628 0.6357975 -0.3765704
-0.6708492 0.6306277 -0.390218
-0.6678204 0.6253686 -0.4036459
-0.6646813 0.6200245 -0.4168553
-0.6614367 0.6145996 -0.4298473
-0.6580913 0.609098 -0.4426235
-0.6546495 0.6035234 -0.4551852
-0.6511158 0.5978796 -0.4675342
-0.6474945 0.5921702 -0.4796722
-0.6437898 0.5863984 -0.491601
-0.640006 0.5805676 -0.5033226
-0.6361468 0.5746808 -0.514839
-0.6322163 0.5687409 -0.5261524
-0.6282183 0.5627506 -0.5372649
-0.6241563 0.5567126 -0.5481788
-0.6200341 0.5506292 -0.5588964
-0.615855 0.5445029 -0.56942
-0.6116225 0.5383358 -0.5797521
-0.6073399 0.5321297 -0.5898951
-0.6030103 0.5258867 -0.5998514
-0.5986369 0.5196085 -0.6096235
-0.5942228 0.5132965 -0.619214
-0.5897707 0.5069524 -0.6286254
-0.5852836 0.5005773 -0.6378601
-0.5807643 0.4941724 -0.6469207
-0.5762155 0.4877389 -0.6558098
-0.5716398 0.4812775 -0.6645298
-0.5670397 0.4747893 -0.6730833
-0.5624178 0.4682747 -0.6814727
-0.5577766 0.4617344 -0.6897004
-0.5531183 0.4551688 -0.697769
-0.5484452 0.4485783 -0.7056808
-0.5437598 0.441963 -0.7134381
-0.5390642 0.4353232 -0.7210433
-0.5343606 0.4286587 -0.7284987
-0.5296511 0.4219697 -0.7358065
-0.524938 0.4152558 -0.7429689
-0.5202231 0.4085167 -0.749988
-0.5155087 0.4017523 -0.7568658
-0.5107968 0.3949619 -0.7636044
-0.5060895 0.388145 -0.7702058
-0.5013886 0.3813011 -0.7766717
-0.4966964 0.3744294 -0.783004
-0.4920148 0.3675293 -0.7892045
-0.4873458 0.3605997 -0.7952747
-0.4826915 0.3536399 -0.8012164
-0.478054 0.3466489 -0.8070309
-0.4734354 0.3396256 -0.8127197
-0.4688379 0.332569 -0.8182841
-0.4642636 0.3254778 -0.8237254
-0.4597147 0.3183509 -0.8290447
-0.4551935 0.311187 -0.8342431
-0.4507025 0.3039849 -0.8393214
-0.446244 0.2967431 -0.8442807
-0.4418205 0.2894603 -0.8491215
-0.4374347 0.2821351 -0.8538446
-0.4330893 0.274766 -0.8584505
-0.4287871 0.2673515 -0.8629397
-0.424531 0.2598901 -0.8673123
-0.4203242 0.2523803 -0.8715686
-0.4161699 0.2448206 -0.8757086
-0.4120715 0.2372093 -0.8797322
-0.4080327 0.229545 -0.8836393
-0.4040572 0.2218261 -0.8874294
-0.4001491 0.2140512 -0.891102
-0.3963127 0.2062186 -0.8946565
-0.3925523 0.198327 -0.8980919
-0.3888729 0.1903749 -0.9014074
-0.3852794 0.1823611 -0.9046017
-0.3817773 0.1742844 -0.9076734
-0.3783723 0.1661436 -0.9106211
-0.3750703 0.1579377 -0.9134429
-0.3718779 0.1496661 -0.9161369
-0.3688018 0.1413281 -0.918701
-0.3658492 0.1329233 -0.9211329
-0.3630276 0.1244519 -0.9234298
-0.360345 0.115914 -0.9255892
-0.3578097 0.1073105 -0.9276081
-0.3554302 0.09864237 -0.9294832
-0.3532154 0.08991148 -0.9312115
-0.3511743 0.08112007 -0.9327894
-0.3493162 0.07227108 -0.9342136
-0.3476499 0.06336816 -0.9354806
-0.3461843 0.05441569 -0.9365871
-0.3449278 0.04541885 -0.9375297
-0.3438881 0.03638355 -0.9383055
-0.3430717 0.02731646 -0.9389119
-0.3424845 0.01822488 -0.9393467
-0.3421304 0.009116651 -0.9396083
-0.3420121 2.393486e-09 -0.9396956
-0.3421304 -0.009116646 -0.9396083
-0.3424845 -0.01822487 -0.9393467
-0.3430717 -0.02731645 -0.9389119
-0.3438881 -0.03638355 -0.9383055
-0.3449278 -0.04541884 -0.9375297
-0.3461843 -0.05441569 -0.9365871
-0.3476499 -0.06336816 -0.9354806
-0.3493162 -0.07227108 -0.9342136
-0.3511743 -0.08112007 -0.9327894
-0.3532154 -0.08991148 -0.9312115
-0.3554302 -0.09864237 -0.9294832
-0.3578097 -0.1073104 -0.9276081
-0.360345 -0.115914 -0.9255892
-0.3630276 -0.1244519 -0.9234298
-0.3658492 -0.1329233 -0.9211329
-0.3688018 -0.1413281 -0.918701
-0.3718779 -0.1496661 -0.9161369
-0.3750703 -0.1579377 -0.9134429
-0.3783723 -0.1661436 -0.9106211
-0.3817773 -0.1742844 -0.9076734
-0.3852794 -0.1823611 -0.9046017
-0.3888729 -0.1903749 -0.9014074
-0.3925523 -0.198327 -0.8980919
-0.3963127 -0.2062186 -0.8946565
-0.4001491 -0.2140511 -0.891102
-0.4040572 -0.2218261 -0.8874294
-0.4080327 -0.229545 -0.8836393
-0.4120715 -0.2372093 -0.8797322
-0.4161699 -0.2448205 -0.8757086
-0.4203242 -0.2523803 -0.8715686
-0.424531 -0.2598901 -0.8673123
-0.4287871 -0.2673515 -0.8629397
-0.4330893 -0.274766 -0.8584505
-0.4374347 -0.2821351 -0.8538446
-0.4418205 -0.2894603 -0.8491215
-0.446244 -0.2967431 -0.8442807
-0.4507025 -0.3039849 -0.8393214
-0.4551935 -0.311187 -0.8342431
-0.4597147 -0.3183509 -0.8290447
-0.4642636 -0.3254778 -0.8237254
-0.4688379 -0.332569 -0.8182841
-0.4734354 -0.3396256 -0.8127197
-0.478054 -0.3466489 -0.8070309
-0.4826915 -0.3536399 -0.8012164
-0.4873458 -0.3605997 -0.7952747
-0.4920148 -0.3675293 -0.7892045
-0.4966964 -0.3744294 -0.783004
-0.5013886 -0.3813011 -0.7766717
-0.5060895 -0.388145 -0.7702058
-0.5107968 -0.3949619 -0.7636044
-0.5155087 -0.4017523 -0.7568658
-0.5202231 -0.4085167 -0.749988
-0.524938 -0.4152558 -0.7429689
-0.5296511 -0.4219697 -0.7358065
-0.5343606 -0.4286587 -0.7284987
-0.5390642 -0.4353232 -0.7210433