# vtk DataFile Version 2.0
Written badly by Kevin Korner
ASCII
DATASET POLYDATA
POINTS 350 FLOAT
0 0 0
0.00286533 0 0
0.005728937 -5.337381e-05 8.376889e-05
0.008587304 -0.0001579777 0.0002537884
0.01143681 -0.0003114466 0.0005123538
0.01427376 -0.0005111971 0.0008615543
0.01709437 -0.0007544318 0.001303254
0.01989482 -0.001038147 0.001839074
0.02267125 -0.001359139 0.002470376
0.02541977 -0.001714017 0.003198245
0.02813652 -0.002099216 0.004023479
0.03081765 -0.002511006 0.004946575
0.03345935 -0.002945513 0.005967718
0.03605789 -0.003398735 0.007086775
0.03860962 -0.003866558 0.00830329
0.04111101 -0.004344781 0.00961648
0.04355865 -0.004829133 0.01102524
0.04594927 -0.005315297 0.01252813
0.04827978 -0.005798931 0.01412341
0.05054729 -0.006275693 0.015809
0.05274907 -0.006741263 0.01758256
0.05488264 -0.007191364 0.01944144
0.05694573 -0.007621789 0.0213827
0.05893632 -0.008028419 0.02340318
0.06085261 -0.008407243 0.02549946
0.0626931 -0.008754383 0.02766792
0.0644565 -0.009066105 0.02990474
0.0661418 -0.009338843 0.03220593
0.06774826 -0.009569209 0.03456736
0.06927537 -0.009754009 0.03698477
0.0707229 -0.009890254 0.03945382
0.07209086 -0.009975169 0.04197009
0.07337949 -0.0100062 0.04452911
0.07458928 -0.009981028 0.04712639
0.07572092 -0.009897552 0.04975746
0.07677533 -0.009753915 0.05241786
0.07775361 -0.009548488 0.05510317
0.07865706 -0.009279877 0.05780904
0.07948714 -0.008946912 0.06053121
0.08024545 -0.008548649 0.06326552
0.08093376 -0.008084361 0.06600793
0.08155394 -0.007553529 0.06875451
0.08210797 -0.006955836 0.07150149
0.08259795 -0.006291158 0.07424526
0.08302602 -0.005559553 0.07698234
0.08339441 -0.004761249 0.07970945
0.08370541 -0.003896636 0.08242345
0.08396131 -0.002966253 0.08512142
0.08416447 -0.001970777 0.08780057
0.08431723 -0.0009110095 0.09045833
0.08442196 0.0002121309 0.09309228
0.084481 0.001397623 0.0957002
0.08449668 0.002644354 0.09828003
0.08447132 0.003951128 0.1008299
0.08440718 0.005316679 0.1033481
0.08430651 0.006739679 0.105833
0.0841715 0.008218749 0.1082834
0.08400428 0.009752466 0.1106979
0.08380695 0.01133937 0.1130755
0.08358151 0.01297799 0.1154152
0.08332995 0.01466681 0.1177162
0.08305414 0.01640433 0.1199779
0.08275594 0.01818902 0.1221996
0.08243709 0.02001936 0.124381
0.08209929 0.02189384 0.1265216
0.08174416 0.02381096 0.1286213
0.08137326 0.02576922 0.1306799
0.08098807 0.02776716 0.1326973
0.08058999 0.02980332 0.1346736
0.08018038 0.03187627 0.1366088
0.07976051 0.03398463 0.1385032
0.07933159 0.03612702 0.1403569
0.07889476 0.03830211 0.1421703
0.07845112 0.04050857 0.1439436
0.07800167 0.04274516 0.1456774
0.07754739 0.04501062 0.1473719
0.07708916 0.04730376 0.1490277
0.07662785 0.04962341 0.1506452
0.07616425 0.05196845 0.1522251
0.0756991 0.05433778 0.1537678
0.07523309 0.05673034 0.155274
0.07476686 0.05914513 0.1567443
0.07430103 0.06158114 0.1581792
0.07383614 0.06403745 0.1595794
0.07337272 0.06651313 0.1609455
0.07291124 0.06900731 0.1622782
0.07245213 0.07151915 0.1635783
0.07199581 0.07404783 0.1648462
0.07154265 0.07659258 0.1660827
0.07109298 0.07915265 0.1672885
0.07064711 0.08172733 0.1684642
0.07020533 0.08431593 0.1696106
0.06976788 0.0869178 0.1707282
0.069335 0.08953231 0.1718177
0.0689069 0.09215886 0.1728798
0.06848375 0.09479688 0.1739151
0.06806571 0.09744581 0.1749244
0.06765294 0.1001051 0.1759081
0.06724555 0.1027744 0.1768669
0.06684366 0.105453 0.1778015
0.06644735 0.1081406 0.1787125
0.0660567 0.1108367 0.1796004
0.06567178 0.113541 0.1804658
0.06529264 0.116253 0.1813094
0.06491932 0.1189723 0.1821316
0.06455184 0.1216986 0.1829331
0.06419022 0.1244315 0.1837143
0.06383448 0.1271708 0.1844758
0.06348462 0.1299161 0.185218
0.06314063 0.1326672 0.1859416
0.06280249 0.1354237 0.186647
0.0624702 0.1381853 0.1873346
0.06214373 0.140952 0.188005
0.06182304 0.1437233 0.1886585
0.06150811 0.1464991 0.1892956
0.0611989 0.1492791 0.1899167
0.06089536 0.1520632 0.1905223
0.06059747 0.1548512 0.1911127
0.06030518 0.1576429 0.1916883
0.06001843 0.160438 0.1922495
0.05973719 0.1632365 0.1927966
0.05946141 0.1660382 0.19333
0.05919104 0.168843 0.19385
0.05892603 0.1716507 0.1943568
0.05866634 0.1744611 0.1948509
0.05841192 0.1772742 0.1953325
0.05816273 0.1800898 0.1958018
0.05791872 0.1829079 0.1962592
0.05767986 0.1857282 0.1967049
0.05744609 0.1885508 0.197139
0.05721739 0.1913755 0.1975619
0.05699371 0.1942022 0.1979738
0.05677502 0.1970309 0.1983748
0.0565613 0.1998615 0.1987651
0.05635251 0.2026939 0.199145
0.05614863 0.2055279 0.1995145
0.05594963 0.2083637 0.1998739
0.05575549 0.211201 0.2002232
0.0555662 0.2140398 0.2005627
0.05538174 0.2168801 0.2008924
0.0552021 0.2197219 0.2012124
0.05502727 0.222565 0.2015229
0.05485724 0.2254094 0.2018239
0.05469202 0.228255 0.2021156
0.0545316 0.2311019 0.202398
0.05437599 0.2339499 0.2026711
0.05422519 0.2367991 0.2029351
0.05407921 0.2396493 0.20319
0.05393806 0.2425006 0.2034358
0.05380177 0.2453528 0.2036726
0.05367033 0.2482061 0.2039004
0.05354379 0.2510602 0.2041193
0.05342215 0.2539153 0.2043292
0.05330544 0.2567712 0.2045301
0.05319369 0.2596279 0.2047221
0.05308694 0.2624853 0.2049052
0.0529852 0.2653436 0.2050794
0.05288851 0.2682025 0.2052446
0.05279691 0.2710621 0.2054008
0.05271043 0.2739223 0.2055481
0.0526291 0.2767832 0.2056863
0.05255297 0.2796446 0.2058156
0.05248208 0.2825065 0.2059358
0.05241645 0.2853689 0.2060469
0.05235613 0.2882318 0.2061489
0.05230116 0.2910951 0.2062417
0.05225156 0.2939588 0.2063254
0.05220738 0.2968228 0.2063999
0.05216865 0.2996871 0.2064652
0.05213538 0.3025517 0.2065212
0.05210762 0.3054165 0.2065679
0.05208538 0.3082815 0.2066053
0.05206869 0.3111467 0.2066334
0.05205755 0.3140119 0.2066521
0.05205198 0.3168772 0.2066614
0.05205198 0.3197426 0.2066614
0.05205755 0.3226079 0.2066521
0.05206869 0.3254731 0.2066334
0.05208538 0.3283382 0.2066053
0.05210762 0.3312032 0.2065679
0.05213538 0.3340681 0.2065212
0.05216865 0.3369327 0.2064652
0.05220738 0.339797 0.2063999
0.05225156 0.342661 0.2063254
0.05230116 0.3455247 0.2062417
0.05235613 0.348388 0.2061489
0.05241645 0.3512508 0.2060469
0.05248208 0.3541133 0.2059358
0.05255297 0.3569752 0.2058156
0.0526291 0.3598366 0.2056863
0.05271043 0.3626974 0.2055481
0.05279691 0.3655577 0.2054008
0.05288851 0.3684173 0.2052446
0.0529852 0.3712762 0.2050794
0.05308694 0.3741344 0.2049052
0.05319369 0.3769919 0.2047221
0.05330544 0.3798486 0.2045301
0.05342215 0.3827045 0.2043292
0.05354379 0.3855595 0.2041193
0.05367033 0.3884137 0.2039004
0.05380177 0.3912669 0.2036726
0.05393806 0.3941192 0.2034358
0.05407921 0.3969705 0.20319
0.05422519 0.3998207 0.2029351
0.05437599 0.4026699 0.2026711
0.0545316 0.4055179 0.202398
0.05469202 0.4083648 0.2021156
0.05485724 0.4112104 0.2018239
0.05502727 0.4140548 0.2015229
0.0552021 0.4168979 0.2012124
0.05538174 0.4197396 0.2008924
0.0555662 0.4225799 0.2005627
0.05575549 0.4254188 0.2002232
0.05594963 0.4282561 0.1998739
0.05614863 0.4310918 0.1995145
0.05635251 0.4339259 0.199145
0.0565613 0.4367583 0.1987651
0.05677502 0.4395888 0.1983748
0.05699371 0.4424175 0.1979738
0.05721739 0.4452443 0.1975619
0.05744609 0.448069 0.197139
0.05767986 0.4508915 0.1967049
0.05791872 0.4537119 0.1962592
0.05816273 0.45653 0.1958018
0.05841192 0.4593456 0.1953325
0.05866634 0.4621587 0.1948509
0.05892603 0.4649691 0.1943568
0.05919104 0.4677768 0.19385
0.05946141 0.4705815 0.19333
0.05973719 0.4733832 0.1927966
0.06001843 0.4761817 0.1922495
0.06030518 0.4789769 0.1916883
0.06059747 0.4817686 0.1911127
0.06089536 0.4845565 0.1905223
0.0611989 0.4873407 0.1899167
0.06150811 0.4901207 0.1892956
0.06182304 0.4928965 0.1886585
0.06214373 0.4956678 0.188005
0.0624702 0.4984344 0.1873346
0.0628025 0.5011961 0.186647
0.06314063 0.5039526 0.1859416
0.06348462 0.5067036 0.185218
0.06383448 0.5094489 0.1844758
0.06419022 0.5121882 0.1837143
0.06455184 0.5149212 0.1829331
0.06491932 0.5176475 0.1821316
0.06529264 0.5203668 0.1813094
0.06567178 0.5230788 0.1804658
0.0660567 0.525783 0.1796004
0.06644735 0.5284792 0.1787125
0.06684366 0.5311668 0.1778015
0.06724555 0.5338454 0.1768669
0.06765294 0.5365146 0.1759081
0.06806571 0.539174 0.1749244
0.06848375 0.5418229 0.1739151
0.0689069 0.5444609 0.1728798
0.069335 0.5470875 0.1718177
0.06976788 0.549702 0.1707282
0.07020533 0.5523038 0.1696106
0.07064711 0.5548924 0.1684642
0.07109298 0.5574671 0.1672885
0.07154265 0.5600272 0.1660827
0.07199581 0.5625719 0.1648462
0.07245213 0.5651006 0.1635783
0.07291124 0.5676125 0.1622782
0.07337272 0.5701066 0.1609455
0.07383614 0.5725823 0.1595794
0.07430103 0.5750386 0.1581792
0.07476686 0.5774746 0.1567443
0.07523309 0.5798894 0.155274
0.0756991 0.582282 0.1537678
0.07616425 0.5846513 0.1522251
0.07662785 0.5869964 0.1506452
0.07708916 0.589316 0.1490277
0.07754739 0.5916092 0.1473719
0.07800167 0.5938746 0.1456774
0.07845112 0.5961112 0.1439436
0.07889476 0.5983177 0.1421703
0.07933159 0.6004927 0.1403569
0.07976051 0.6026351 0.1385032
0.08018038 0.6047435 0.1366088
0.08058999 0.6068165 0.1346736
0.08098807 0.6088526 0.1326973
0.08137326 0.6108506 0.1306799
0.08174416 0.6128088 0.1286213
0.08209929 0.6147259 0.1265216
0.08243709 0.6166004 0.124381
0.08275594 0.6184308 0.1221996
0.08305414 0.6202154 0.1199779
0.08332995 0.621953 0.1177162
0.08358151 0.6236418 0.1154152
0.08380695 0.6252804 0.1130755
0.08400428 0.6268673 0.1106979
0.0841715 0.628401 0.1082834
0.08430651 0.6298801 0.105833
0.08440718 0.6313031 0.1033481
0.08447132 0.6326686 0.1008299
0.08449668 0.6339754 0.09828003
0.084481 0.6352221 0.0957002
0.08442196 0.6364076 0.09309228
0.08431723 0.6375308 0.09045833
0.08416447 0.6385905 0.08780057
0.08396131 0.639586 0.08512142
0.08370541 0.6405164 0.08242345
0.08339441 0.641381 0.07970945
0.08302602 0.6421793 0.07698234
0.08259795 0.6429109 0.07424526
0.08210797 0.6435756 0.07150149
0.08155394 0.6441733 0.06875451
0.08093376 0.6447041 0.06600793
0.08024545 0.6451684 0.06326552
0.07948714 0.6455667 0.06053121
0.07865706 0.6458996 0.05780904
0.07775361 0.6461683 0.05510317
0.07677533 0.6463737 0.05241786
0.07572092 0.6465173 0.04975746
0.07458928 0.6466008 0.04712639
0.07337949 0.646626 0.04452911
0.07209086 0.6465949 0.04197009
0.0707229 0.64651 0.03945382
0.06927537 0.6463738 0.03698477
0.06774826 0.646189 0.03456736
0.0661418 0.6459586 0.03220593
0.0644565 0.6456859 0.02990474
0.0626931 0.6453742 0.02766792
0.06085261 0.645027 0.02549946
0.05893631 0.6446482 0.02340318
0.05694573 0.6442416 0.0213827
0.05488264 0.6438111 0.01944144
0.05274907 0.643361 0.01758256
0.05054729 0.6428955 0.015809
0.04827978 0.6424187 0.01412341
0.04594927 0.6419351 0.01252813
0.04355865 0.6414489 0.01102524
0.04111101 0.6409646 0.00961648
0.03860962 0.6404863 0.00830329
0.03605789 0.6400185 0.007086775
0.03345935 0.6395653 0.005967718
0.03081765 0.6391308 0.004946575
0.02813652 0.638719 0.00402348
0.02541977 0.6383338 0.003198245
0.02267125 0.6379789 0.002470376
0.01989482 0.6376579 0.001839074
0.01709437 0.6373742 0.001303254
0.01427376 0.637131 0.0008615543
0.01143681 0.6369312 0.0005123538
0.008587304 0.6367778 0.0002537884
0.005728937 0.6366731 8.376889e-05
0.00286533 0.6366198 0
0 0.6366198 0

LINES 349 1047
2 0 1
2 1 2
2 2 3
2 3 4
2 4 5
2 5 6
2 6 7
2 7 8
2 8 9
2 9 10
2 10 11
2 11 12
2 12 13
2 13 14
2 14 15
2 15 16
2 16 17
2 17 18
2 18 19
2 19 20
2 20 21
2 21 22
2 22 23
2 23 24
2 24 25
2 25 26
2 26 27
2 27 28
2 28 29
2 29 30
2 30 31
2 31 32
2 32 33
2 33 34
2 34 35
2 35 36
2 36 37
2 37 38
2 38 39
2 39 40
2 40 41
2 41 42
2 42 43
2 43 44
2 44 45
2 45 46
2 46 47
2 47 48
2 48 49
2 49 50
2 50 51
2 51 52
2 52 53
2 53 54
2 54 55
2 55 56
2 56 57
2 57 58
2 58 59
2 59 60
2 60 61
2 61 62
2 62 63
2 63 64
2 64 65
2 65 66
2 66 67
2 67 68
2 68 69
2 69 70
2 70 71
2 71 72
2 72 73
2 73 74
2 74 75
2 75 76
2 76 77
2 77 78
2 78 79
2 79 80
2 80 81
2 81 82
2 82 83
2 83 84
2 84 85
2 85 86
2 86 87
2 87 88
2 88 89
2 89 90
2 90 91
2 91 92
2 92 93
2 93 94
2 94 95
2 95 96
2 96 97
2 97 98
2 98 99
2 99 100
2 100 101
2 101 102
2 102 103
2 103 104
2 104 105
2 105 106
2 106 107
2 107 108
2 108 109
2 109 110
2 110 111
2 111 112
2 112 113
2 113 114
2 114 115
2 115 116
2 116 117
2 117 118
2 118 119
2 119 120
2 120 121
2 121 122
2 122 123
2 123 124
2 124 125
2 125 126
2 126 127
2 127 128
2 128 129
2 129 130
2 130 131
2 131 132
2 132 133
2 133 134
2 134 135
2 135 136
2 136 137
2 137 138
2 138 139
2 139 140
2 140 141
2 141 142
2 142 143
2 143 144
2 144 145
2 145 146
2 146 147
2 147 148
2 148 149
2 149 150
2 150 151
2 151 152
2 152 153
2 153 154
2 154 155
2 155 156
2 156 157
2 157 158
2 158 159
2 159 160
2 160 161
2 161 162
2 162 163
2 163 164
2 164 165
2 165 166
2 166 167
2 167 168
2 168 169
2 169 170
2 170 171
2 171 172
2 172 173
2 173 174
2 174 175
2 175 176
2 176 177
2 177 178
2 178 179
2 179 180
2 180 181
2 181 182
2 182 183
2 183 184
2 184 185
2 185 186
2 186 187
2 187 188
2 188 189
2 189 190
2 190 191
2 191 192
2 192 193
2 193 194
2 194 195
2 195 196
2 196 197
2 197 198
2 198 199
2 199 200
2 200 201
2 201 202
2 202 203
2 203 204
2 204 205
2 205 206
2 206 207
2 207 208
2 208 209
2 209 210
2 210 211
2 211 212
2 212 213
2 213 214
2 214 215
2 215 216
2 216 217
2 217 218
2 218 219
2 219 220
2 220 221
2 221 222
2 222 223
2 223 224
2 224 225
2 225 226
2 226 227
2 227 228
2 228 229
2 229 230
2 230 231
2 231 232
2 232 233
2 233 234
2 234 235
2 235 236
2 236 237
2 237 238
2 238 239
2 239 240
2 240 241
2 241 242
2 242 243
2 243 244
2 244 245
2 245 246
2 246 247
2 247 248
2 248 249
2 249 250
2 250 251
2 251 252
2 252 253
2 253 254
2 254 255
2 255 256
2 256 257
2 257 258
2 258 259
2 259 260
2 260 261
2 261 262
2 262 263
2 263 264
2 264 265
2 265 266
2 266 267
2 267 268
2 268 269
2 269 270
2 270 271
2 271 272
2 272 273
2 273 274
2 274 275
2 275 276
2 276 277
2 277 278
2 278 279
2 279 280
2 280 281
2 281 282
2 282 283
2 283 284
2 284 285
2 285 286
2 286 287
2 287 288
2 288 289
2 289 290
2 290 291
2 291 292
2 292 293
2 293 294
2 294 295
2 295 296
2 296 297
2 297 298
2 298 299
2 299 300
2 300 301
2 301 302
2 302 303
2 303 304
2 304 305
2 305 306
2 306 307
2 307 308
2 308 309
2 309 310
2 310 311
2 311 312
2 312 313
2 313 314
2 314 315
2 315 316
2 316 317
2 317 318
2 318 319
2 319 320
2 320 321
2 321 322
2 322 323
2 323 324
2 324 325
2 325 326
2 326 327
2 327 328
2 328 329
2 329 330
2 330 331
2 331 332
2 332 333
2 333 334
2 334 335
2 335 336
2 336 337
2 337 338
2 338 339
2 339 340
2 340 341
2 341 342
2 342 343
2 343 344
2 344 345
2 345 346
2 346 347
2 347 348
2 348 349


POINT_DATA 350
SCALARS a FLOAT 1
LOOKUP_TABLE default
0.0005894628
0.0005894628
0.0005894628
0.0005894628
0.0005894628
0.0005894628
0.0005894628
0.0005894628
0.0005894628
0.0005894628
0.0005894628
0.0005894628
0.0005894628
0.0005894628
0.0005894628
0.0005894628
0.0005894628
0.0005894628
0.0005894628
0.0005894628
0.0005894628
0.0005894628
0.0005894628
0.0005894628
0.0005894628
0.0005894628
0.0005894628
0.0005894628
0.0005894628
0.0005894628
0.0005894628
0.0005894628
0.0005894628
0.0005894628
0.0005894628
0.0005894628
0.0005894628
0.0005894628
0.0005894628
0.0005894628
0.0005894628
0.0005894628
0.0005894628
0.0005894628
0.0005894628
0.0005894628
0.0005894628
0.0005894628
0.0005894628
0.0005894628
0.0005894628
0.0005894628
0.0005894628
0.0005894628
0.0005894628
0.0005894628
0.0005894628
0.0005894628
0.0005894628
0.0005894628
0.0005894628
0.0005894628
0.0005894628
0.0005894628
0.0005894628
0.0005894628
0.0005894628
0.0005894628
0.0005894628
0.0005894628
0.0005894628
0.0005894628
0.0005894628
0.0005894628
0.0005894628
0.0005894628
0.0005894628
0.0005894628
0.0005894628
0.0005894628
0.0005894628
0.0005894628
0.0005894628
0.0005894628
0.0005894628
0.0005894628
0.0005894628
0.0005894628
0.0005894628
0.0005894628
0.0005894628
0.0005894628
0.0005894628
0.0005894628
0.0005894628
0.0005894628
0.0005894628
0.0005894628
0.0005894628
0.0005894628
0.0005894628
0.0005894628
0.0005894628
0.0005894628
0.0005894628
0.0005894628
0.0005894628
0.0005894628
0.0005894628
0.0005894628
0.0005894628
0.0005894628
0.0005894628
0.0005894628
0.0005894628
0.0005894628
0.0005894628
0.0005894628
0.0005894628
0.0005894628
0.0005894628
0.0005894628
0.0005894628
0.0005894628
0.0005894628
0.0005894628
0.0005894628
0.0005894628
0.0005894628
0.0005894628
0.0005894628
0.0005894628
0.0005894628
0.0005894628
0.0005894628
0.0005894628
0.0005894628
0.0005894628
0.0005894628
0.0005894628
0.0005894628
0.0005894628
0.0005894628
0.0005894628
0.0005894628
0.0005894628
0.0005894628
0.0005894628
0.0005894628
0.0005894628
0.0005894628
0.0005894628
0.0005894628
0.0005894628
0.0005894628
0.0005894628
0.0005894628
0.0005894628
0.0005894628
0.0005894628
0.0005894628
0.0005894628
0.0005894628
0.0005894628
0.0005894628
0.0005894628
0.0005894628
0.0005894628
0.0005894628
0.0005894628
0.0005894628
0.0005894628
0.0005894628
0.0005894628
0.0005894628
0.0005894628
0.0005894628
0.0005894628
0.0005894628
0.0005894628
0.0005894628
0.0005894628
0.0005894628
0.0005894628
0.0005894628
0.0005894628
0.0005894628
0.0005894628
0.0005894628
0.0005894628
0.0005894628
0.0005894628
0.0005894628
0.0005894628
0.0005894628
0.0005894628
0.0005894628
0.0005894628
0.0005894628
0.0005894628
0.0005894628
0.0005894628
0.0005894628
0.0005894628
0.0005894628
0.0005894628
0.0005894628
0.0005894628
0.0005894628
0.0005894628
0.0005894628
0.0005894628
0.0005894628
0.0005894628
0.0005894628
0.0005894628
0.0005894628
0.0005894628
0.0005894628
0.0005894628
0.0005894628
0.0005894628
0.0005894628
0.0005894628
0.0005894628
0.0005894628
0.0005894628
0.0005894628
0.0005894628
0.0005894628
0.0005894628
0.0005894628
0.0005894628
0.0005894628
0.0005894628
0.0005894628
0.0005894628
0.0005894628
0.0005894628
0.0005894628
0.0005894628
0.0005894628
0.0005894628
0.0005894628
0.0005894628
0.0005894628
0.0005894628
0.0005894628
0.0005894628
0.0005894628
0.0005894628
0.0005894628
0.0005894628
0.0005894628
0.0005894628
0.0005894628
0.0005894628
0.0005894628
0.0005894628
0.0005894628
0.0005894628
0.0005894628
0.0005894628
0.0005894628
0.0005894628
0.0005894628
0.0005894628
0.0005894628
0.0005894628
0.0005894628
0.0005894628
0.0005894628
0.0005894628
0.0005894628
0.0005894628
0.0005894628
0.0005894628
0.0005894628
0.0005894628
0.0005894628
0.0005894628
0.0005894628
0.0005894628
0.0005894628
0.0005894628
0.0005894628
0.0005894628
0.0005894628
0.0005894628
0.0005894628
0.0005894628
0.0005894628
0.0005894628
0.0005894628
0.0005894628
0.0005894628
0.0005894628
0.0005894628
0.0005894628
0.0005894628
0.0005894628
0.0005894628
0.0005894628
0.0005894628
0.0005894628
0.0005894628
0.0005894628
0.0005894628
0.0005894628
0.0005894628
0.0005894628
0.0005894628
0.0005894628
0.0005894628
0.0005894628
0.0005894628
0.0005894628
0.0005894628
0.0005894628
0.0005894628
0.0005894628
0.0005894628
0.0005894628
0.0005894628
0.0005894628
0.0005894628
0.0005894628
0.0005894628
0.0005894628
0.0005894628
0.0005894628
0.0005894628
0.0005894628
0.0005894628
0.0005894628
0.0005894628
0.0005894628
0.0005894628
0.0005894628
0.0005894628
0.0005894628
0.0005894628
0.0005894628
0.0005894628
0.0005894628
0.0005894628
0.0005894628
0.0005894628
0.0005894628
0.0005894628


SCALARS b FLOAT 1
LOOKUP_TABLE default
0.04420971
0.04420971
0.04420971
0.04420971
0.04420971
0.04420971
0.04420971
0.04420971
0.04420971
0.04420971
0.04420971
0.04420971
0.04420971
0.04420971
0.04420971
0.04420971
0.04420971
0.04420971
0.04420971
0.04420971
0.04420971
0.04420971
0.04420971
0.04420971
0.04420971
0.04420971
0.04420971
0.04420971
0.04420971
0.04420971
0.04420971
0.04420971
0.04420971
0.04420971
0.04420971
0.04420971
0.04420971
0.04420971
0.04420971
0.04420971
0.04420971
0.04420971
0.04420971
0.04420971
0.04420971
0.04420971
0.04420971
0.04420971
0.04420971
0.04420971
0.04420971
0.04420971
0.04420971
0.04420971
0.04420971
0.04420971
0.04420971
0.04420971
0.04420971
0.04420971
0.04420971
0.04420971
0.04420971
0.04420971
0.04420971
0.04420971
0.04420971
0.04420971
0.04420971
0.04420971
0.04420971
0.04420971
0.04420971
0.04420971
0.04420971
0.04420971
0.04420971
0.04420971
0.04420971
0.04420971
0.04420971
0.04420971
0.04420971
0.04420971
0.04420971
0.04420971
0.04420971
0.04420971
0.04420971
0.04420971
0.04420971
0.04420971
0.04420971
0.04420971
0.04420971
0.04420971
0.04420971
0.04420971
0.04420971
0.04420971
0.04420971
0.04420971
0.04420971
0.04420971
0.04420971
0.04420971
0.04420971
0.04420971
0.04420971
0.04420971
0.04420971
0.04420971
0.04420971
0.04420971
0.04420971
0.04420971
0.04420971
0.04420971
0.04420971
0.04420971
0.04420971
0.04420971
0.04420971
0.04420971
0.04420971
0.04420971
0.04420971
0.04420971
0.04420971
0.04420971
0.04420971
0.04420971
0.04420971
0.04420971
0.04420971
0.04420971
0.04420971
0.04420971
0.04420971
0.04420971
0.04420971
0.04420971
0.04420971
0.04420971
0.04420971
0.04420971
0.04420971
0.04420971
0.04420971
0.04420971
0.04420971
0.04420971
0.04420971
0.04420971
0.04420971
0.04420971
0.04420971
0.04420971
0.04420971
0.04420971
0.04420971
0.04420971
0.04420971
0.04420971
0.04420971
0.04420971
0.04420971
0.04420971
0.04420971
0.04420971
0.04420971
0.04420971
0.04420971
0.04420971
0.04420971
0.04420971
0.04420971
0.04420971
0.04420971
0.04420971
0.04420971
0.04420971
0.04420971
0.04420971
0.04420971
0.04420971
0.04420971
0.04420971
0.04420971
0.04420971
0.04420971
0.04420971
0.04420971
0.04420971
0.04420971
0.04420971
0.04420971
0.04420971
0.04420971
0.04420971
0.04420971
0.04420971
0.04420971
0.04420971
0.04420971
0.04420971
0.04420971
0.04420971
0.04420971
0.04420971
0.04420971
0.04420971
0.04420971
0.04420971
0.04420971
0.04420971
0.04420971
0.04420971
0.04420971
0.04420971
0.04420971
0.04420971
0.04420971
0.04420971
0.04420971
0.04420971
0.04420971
0.04420971
0.04420971
0.04420971
0.04420971
0.04420971
0.04420971
0.04420971
0.04420971
0.04420971
0.04420971
0.04420971
0.04420971
0.04420971
0.04420971
0.04420971
0.04420971
0.04420971
0.04420971
0.04420971
0.04420971
0.04420971
0.04420971
0.04420971
0.04420971
0.04420971
0.04420971
0.04420971
0.04420971
0.04420971
0.04420971
0.04420971
0.04420971
0.04420971
0.04420971
0.04420971
0.04420971
0.04420971
0.04420971
0.04420971
0.04420971
0.04420971
0.04420971
0.04420971
0.04420971
0.04420971
0.04420971
0.04420971
0.04420971
0.04420971
0.04420971
0.04420971
0.04420971
0.04420971
0.04420971
0.04420971
0.04420971
0.04420971
0.04420971
0.04420971
0.04420971
0.04420971
0.04420971
0.04420971
0.04420971
0.04420971
0.04420971
0.04420971
0.04420971
0.04420971
0.04420971
0.04420971
0.04420971
0.04420971
0.04420971
0.04420971
0.04420971
0.04420971
0.04420971
0.04420971
0.04420971
0.04420971
0.04420971
0.04420971
0.04420971
0.04420971
0.04420971
0.04420971
0.04420971
0.04420971
0.04420971
0.04420971
0.04420971
0.04420971
0.04420971
0.04420971
0.04420971
0.04420971
0.04420971
0.04420971
0.04420971
0.04420971
0.04420971
0.04420971
0.04420971
0.04420971
0.04420971
0.04420971
0.04420971
0.04420971
0.04420971
0.04420971
0.04420971
0.04420971
0.04420971
0.04420971
0.04420971
0.04420971
0.04420971
0.04420971
0.04420971
0.04420971
0.04420971
0.04420971


VECTORS d1 FLOAT
0 -0.550335 0.8349439
-0.03466111 -0.5237511 0.8511659
-0.06963355 -0.49578 0.865652
-0.1048207 -0.4664634 0.8783077
-0.1401211 -0.435852 0.8890439
-0.1754286 -0.4040047 0.8977778
-0.2106336 -0.3709889 0.9044339
-0.2456232 -0.3368804 0.9089449
-0.2802822 -0.3017629 0.9112525
-0.3144939 -0.2657276 0.9113081
-0.348141 -0.2288729 0.9090737
-0.3811065 -0.1913039 0.9045224
-0.4132746 -0.1531312 0.8976385
-0.4445318 -0.1144709 0.8884188
-0.4747676 -0.07544309 0.8768718
-0.5038755 -0.03617137 0.8630186
-0.5317543 0.003218274 0.8468926
-0.5583083 0.04259844 0.8285392
-0.5834487 0.08184129 0.8080159
-0.6070939 0.1208196 0.7853914
-0.6291704 0.1594079 0.7607455
-0.6496134 0.1974832 0.7341681
-0.6683672 0.2349261 0.7057585
-0.6853852 0.2716221 0.6756246
-0.7006308 0.3074616 0.6438818
-0.7140772 0.3423414 0.6106522
-0.7257071 0.3761654 0.5760632
-0.7355134 0.4088445 0.5402465
-0.7434982 0.440298 0.5033369
-0.7496731 0.4704534 0.4654717
-0.7540584 0.4992469 0.4267885
-0.7566831 0.5266236 0.3874252
-0.7575838 0.5525376 0.3475183
-0.7568047 0.5769519 0.3072022
-0.7543964 0.5998385 0.2666082
-0.7504157 0.6211779 0.2258636
-0.7449247 0.6409591 0.185091
-0.7379899 0.6591792 0.1444079
-0.729682 0.6758429 0.1039257
-0.7200744 0.6909623 0.06374954
-0.7092434 0.7045558 0.0239777
-0.6972668 0.7166485 -0.01529845
-0.6842235 0.7272707 -0.05399479
-0.6701932 0.7364582 -0.09203451
-0.6552553 0.744251 -0.1293482
-0.6394887 0.7506931 -0.1658738
-0.6229712 0.7558319 -0.2015563
-0.6057794 0.7597177 -0.236348
-0.5879876 0.762403 -0.2702079
-0.5696681 0.7639421 -0.3031017
-0.550891 0.7643908 -0.3350013
-0.5317232 0.7638055 -0.3658846
-0.5122291 0.7622434 -0.3957352
-0.4924698 0.7597615 -0.4245421
-0.4725033 0.7564167 -0.452299
-0.4523843 0.7522654 -0.4790044
-0.4321645 0.747363 -0.5046607
-0.4118919 0.7417639 -0.5292744
-0.3916114 0.7355213 -0.5528552
-0.3713647 0.7286869 -0.5754161
-0.3511903 0.7213106 -0.5969727
-0.3311234 0.7134408 -0.6175431
-0.3111965 0.7051241 -0.6371474
-0.291439 0.6964048 -0.6558076
-0.2718775 0.6873257 -0.6735473
-0.2525359 0.6779274 -0.6903912
-0.2334356 0.6682484 -0.7063653
-0.2145955 0.6583253 -0.7214961
-0.1960324 0.6481927 -0.7358108
-0.1777607 0.6378831 -0.7493372
-0.159793 0.6274272 -0.7621032
-0.1421398 0.6168537 -0.7741368
-0.12481 0.6061894 -0.785466
-0.1078107 0.5954595 -0.7961186
-0.09114767 0.5846872 -0.8061222
-0.07482516 0.5738942 -0.8155039
-0.05884616 0.5631005 -0.8242905
-0.04321249 0.5523246 -0.8325084
-0.0279249 0.5415836 -0.840183
-0.01298314 0.5308929 -0.8473395
0.001613902 0.5202669 -0.8540022
0.01586815 0.5097185 -0.8601949
0.02978223 0.4992597 -0.8659404
0.04335943 0.4889009 -0.8712611
0.05660359 0.478652 -0.8761782
0.06951907 0.4685214 -0.8807127
0.08211065 0.4585169 -0.8848842
0.09438353 0.4486451 -0.8887122
0.1063432 0.4389121 -0.8922148
0.1179955 0.4293231 -0.8954098
0.1293464 0.4198824 -0.8983141
0.1404021 0.4105939 -0.9009439
0.1511691 0.4014607 -0.9033146
0.1616539 0.3924854 -0.9054409
0.1718631 0.38367 -0.907337
0.1818034 0.3750161 -0.9090162
0.1914815 0.3665246 -0.9104914
0.2009042 0.3581962 -0.9117746
0.2100782 0.3500312 -0.9128775
0.2190103 0.3420293 -0.913811
0.2277071 0.33419 -0.9145854
0.2361753 0.3265126 -0.9152108
0.2444215 0.3189959 -0.9156963
0.2524522 0.3116385 -0.916051
0.2602737 0.3044387 -0.9162831
0.2678924 0.2973948 -0.9164006
0.2753146 0.2905044 -0.916411
0.2825462 0.2837655 -0.9163213
0.2895933 0.2771753 -0.9161384
0.2964618 0.2707314 -0.9158684
0.3031572 0.2644307 -0.9155174
0.3096853 0.2582705 -0.9150909
0.3160514 0.2522474 -0.9145943
0.3222608 0.2463583 -0.9140326
0.3283186 0.2405999 -0.9134104
0.3342299 0.2349685 -0.9127323
0.3399994 0.2294607 -0.9120023
0.3456318 0.2240728 -0.9112245
0.3511316 0.2188009 -0.9104025
0.3565031 0.2136414 -0.9095399
0.3617506 0.2085904 -0.90864
0.3668779 0.2036438 -0.9077058
0.3718889 0.1987978 -0.9067404
0.3767873 0.1940483 -0.9057464
0.3815765 0.1893913 -0.9047267
0.3862598 0.1848228 -0.9036835
0.3908404 0.1803387 -0.9026194
0.3953212 0.175935 -0.9015365
0.3997049 0.1716076 -0.900437
0.4039943 0.1673526 -0.8993229
0.4081916 0.163166 -0.8981962
0.4122993 0.1590438 -0.8970587
0.4163192 0.1549822 -0.8959123
0.4202534 0.1509773 -0.8947586
0.4241037 0.1470253 -0.8935993
0.4278715 0.1431225 -0.892436
0.4315583 0.1392653 -0.8912702
0.4351653 0.1354501 -0.8901036
0.4386937 0.1316733 -0.8889376
0.4421443 0.1279316 -0.8877736
0.4455179 0.1242216 -0.8866131
0.4488152 0.1205401 -0.8854575
0.4520365 0.1168838 -0.8843083
0.4551822 0.1132497 -0.8831669
0.4582523 0.1096348 -0.8820346
0.4612469 0.1060361 -0.8809129
0.4641658 0.102451 -0.8798034
0.4670085 0.09887661 -0.8787073
0.4697746 0.09531036 -0.8776262
0.4724633 0.09174973 -0.8765617
0.4750739 0.0881923 -0.8755152
0.4776052 0.08463576 -0.8744884
0.4800561 0.08107791 -0.873483
0.4824252 0.07751667 -0.8725005
0.4847108 0.07395008 -0.8715428
0.4869113 0.07037629 -0.8706116
0.4890246 0.06679361 -0.8697089
0.4910487 0.06320049 -0.8688365
0.4929812 0.05959554 -0.8679965
0.4948195 0.05597754 -0.867191
0.4965611 0.05234543 -0.866422
0.4982029 0.0486984 -0.8656918
0.4997421 0.0450358 -0.8650027
0.5011753 0.04135726 -0.8643569
0.5024995 0.03766262 -0.8637568
0.5037111 0.03395202 -0.8632047
0.5048069 0.03022585 -0.862703
0.5057834 0.02648483 -0.8622538
0.5066376 0.02272993 -0.8618594
0.5073663 0.01896246 -0.8615218
0.5079667 0.01518398 -0.8612429
0.5084365 0.01139634 -0.8610241
0.5087735 0.007601604 -0.8608669
0.5089763 0.003802027 -0.8607721
0.509044 -2.776179e-09 -0.8607405
0.5089763 -0.003802033 -0.8607721
0.5087735 -0.00760161 -0.8608669
0.5084365 -0.01139635 -0.8610241
0.5079667 -0.01518399 -0.8612429
0.5073663 -0.01896247 -0.8615218
0.5066376 -0.02272994 -0.8618594
0.5057834 -0.02648483 -0.8622538
0.5048069 -0.03022586 -0.862703
0.5037111 -0.03395202 -0.8632047
0.5024995 -0.03766262 -0.8637568
0.5011753 -0.04135726 -0.8643569
0.4997421 -0.04503581 -0.8650027
0.4982029 -0.0486984 -0.8656918
0.4965611 -0.05234544 -0.866422
0.4948195 -0.05597754 -0.867191
0.4929812 -0.05959555 -0.8679965
0.4910487 -0.0632005 -0.8688365
0.4890246 -0.06679362 -0.8697089
0.4869113 -0.07037629 -0.8706116
0.4847108 -0.07395008 -0.8715428
0.4824252 -0.07751668 -0.8725005
0.4800561 -0.08107792 -0.873483
0.4776052 -0.08463576 -0.8744884
0.4750739 -0.0881923 -0.8755152
0.4724633 -0.09174973 -0.8765617
0.4697746 -0.09531036 -0.8776262
0.4670085 -0.09887662 -0.8787073
0.4641658 -0.102451 -0.8798034
0.4612469 -0.1060362 -0.8809129
0.4582523 -0.1096348 -0.8820346
0.4551822 -0.1132497 -0.8831669
0.4520365 -0.1168838 -0.8843083
0.4488152 -0.1205401 -0.8854575
0.4455179 -0.1242216 -0.8866131
0.4421443 -0.1279316 -0.8877736
0.4386937 -0.1316733 -0.8889376
0.4351653 -0.1354501 -0.8901036
0.4315583 -0.1392653 -0.8912702
0.4278715 -0.1431225 -0.892436
0.4241037 -0.1470253 -0.8935993
0.4202534 -0.1509773 -0.8947586
0.4163192 -0.1549822 -0.8959123
0.4122993 -0.1590438 -0.8970587
0.4081916 -0.163166 -0.8981962
0.4039943 -0.1673526 -0.8993229
0.3997049 -0.1716076 -0.900437
0.3953212 -0.175935 -0.9015365
0.3908404 -0.1803387 -0.9026194
0.3862598 -0.1848228 -0.9036835