# vtk DataFile Version 2.0
Written badly by Kevin Korner
ASCII
DATASET POLYDATA
POINTS 350 FLOAT
0 0 0
0.00286533 0 0
0.005725125 -0.0001730541 4.166589e-05
0.008567554 -0.0005230979 0.000132099
0.01137966 -0.001052897 0.0002786221
0.01414743 -0.001763842 0.0004886862
0.01685587 -0.002655739 0.0007697588
0.01948914 -0.003726618 0.001129195
0.02203076 -0.00497255 0.001574092
0.02446379 -0.006387496 0.002111133
0.02677111 -0.007963194 0.002746415
0.0289357 -0.009689092 0.003485284
0.030941 -0.01155234 0.004332165
0.03277121 -0.01353784 0.005290402
0.0344117 -0.01562838 0.006362118
0.0358493 -0.01780481 0.0075481
0.03707269 -0.02004634 0.008847714
0.03807265 -0.02233082 0.01025886
0.03884236 -0.02463516 0.01177796
0.03937751 -0.02693575 0.0134
0.03967652 -0.02920886 0.01511862
0.03974046 -0.03143115 0.01692624
0.03957312 -0.03358006 0.01881417
0.03918082 -0.03563426 0.02077287
0.03857225 -0.03757396 0.0227921
0.03775823 -0.03938128 0.02486118
0.0367514 -0.04104044 0.02696917
0.03556593 -0.04253793 0.02910511
0.03421711 -0.04386265 0.03125823
0.03272108 -0.04500586 0.03341811
0.03109443 -0.04596122 0.03557483
0.02935394 -0.04672461 0.03771913
0.0275162 -0.04729407 0.03984246
0.02559748 -0.04766957 0.04193712
0.02361338 -0.04785283 0.04399622
0.02157877 -0.04784709 0.04601376
0.01950759 -0.04765689 0.04798458
0.01741276 -0.04728788 0.04990439
0.01530616 -0.04674656 0.05176967
0.01319852 -0.04604011 0.05357768
0.0110995 -0.0451762 0.05532636
0.009017652 -0.04416283 0.05701429
0.006960487 -0.04300818 0.05864063
0.004934502 -0.04172048 0.06020503
0.002945247 -0.04030793 0.06170758
0.0009973949 -0.03877858 0.06314879
-0.0009051942 -0.03714027 0.06452944
-0.002759399 -0.03540058 0.06585063
-0.004562769 -0.03356681 0.06711366
-0.006313452 -0.03164589 0.06832002
-0.008010129 -0.02964442 0.06947133
-0.009651955 -0.02756863 0.07056933
-0.01123849 -0.02542437 0.07161583
-0.01276967 -0.02321714 0.07261269
-0.01424571 -0.02095205 0.0735618
-0.01566711 -0.0186339 0.07446507
-0.0170346 -0.01626711 0.07532438
-0.01834906 -0.0138558 0.07614161
-0.01961156 -0.01140376 0.07691861
-0.02082328 -0.00891451 0.07765717
-0.0219855 -0.006391272 0.07835905
-0.02309956 -0.003837021 0.07902597
-0.02416688 -0.001254488 0.07965958
-0.02518891 0.001353825 0.08026147
-0.02616713 0.003985621 0.08083317
-0.02710303 0.0066388 0.08137616
-0.02799811 0.009311441 0.08189187
-0.02885383 0.01200179 0.08238163
-0.02967169 0.01470824 0.08284675
-0.03045313 0.01742934 0.08328846
-0.03119958 0.02016374 0.08370794
-0.03191242 0.02291024 0.08410631
-0.03259304 0.02566773 0.08448466
-0.03324276 0.02843519 0.08484398
-0.03386286 0.03121172 0.08518526
-0.03445461 0.03399648 0.08550941
-0.03501921 0.03678871 0.0858173
-0.03555783 0.03958772 0.08610977
-0.03607162 0.04239289 0.0863876
-0.03656165 0.04520364 0.08665154
-0.03702898 0.04801945 0.08690229
-0.03747463 0.05083987 0.08714055
-0.03789956 0.05366446 0.08736693
-0.0383047 0.05649283 0.08758204
-0.03869095 0.05932464 0.08778647
-0.03905918 0.06215956 0.08798075
-0.03941019 0.06499731 0.08816539
-0.03974479 0.06783762 0.08834089
-0.04006372 0.07068025 0.08850771
-0.04036771 0.07352499 0.08866629
-0.04065745 0.07637165 0.08881705
-0.04093359 0.07922004 0.08896038
-0.04119677 0.08207 0.08909665
-0.04144758 0.08492139 0.08922622
-0.04168661 0.08777407 0.08934942
-0.04191441 0.09062792 0.08946658
-0.04213149 0.09348285 0.089578
-0.04233836 0.09633873 0.08968395
-0.04253549 0.0991955 0.08978473
-0.04272334 0.1020531 0.08988057
-0.04290234 0.1049113 0.08997174
-0.04307292 0.1077703 0.09005845
-0.04323545 0.1106298 0.09014093
-0.04339033 0.1134899 0.09021939
-0.0435379 0.1163504 0.09029403
-0.04367851 0.1192114 0.09036503
-0.04381249 0.1220728 0.09043257
-0.04394014 0.1249346 0.09049683
-0.04406177 0.1277967 0.09055796
-0.04417766 0.1306591 0.09061612
-0.04428806 0.1335217 0.09067144
-0.04439325 0.1363846 0.09072408
-0.04449347 0.1392478 0.09077416
-0.04458894 0.1421111 0.0908218
-0.0446799 0.1449746 0.09086713
-0.04476654 0.1478383 0.09091025
-0.04484908 0.1507022 0.09095127
-0.04492771 0.1535662 0.0909903
-0.0450026 0.1564303 0.09102742
-0.04507394 0.1592945 0.09106274
-0.04514189 0.1621588 0.09109634
-0.0452066 0.1650233 0.09112829
-0.04526823 0.1678878 0.09115869
-0.04532692 0.1707523 0.0911876
-0.04538281 0.173617 0.09121509
-0.04543602 0.1764817 0.09124124
-0.04548669 0.1793465 0.09126611
-0.04553493 0.1822113 0.09128976
-0.04558085 0.1850762 0.09131224
-0.04562456 0.1879411 0.09133361
-0.04566616 0.1908061 0.09135393
-0.04570574 0.193671 0.09137324
-0.04574341 0.1965361 0.09139159
-0.04577925 0.1994011 0.09140903
-0.04581333 0.2022662 0.0914256
-0.04584575 0.2051313 0.09144134
-0.04587657 0.2079964 0.09145628
-0.04590587 0.2108616 0.09147047
-0.04593371 0.2137267 0.09148395
-0.04596017 0.2165919 0.09149673
-0.0459853 0.2194571 0.09150886
-0.04600916 0.2223223 0.09152036
-0.04603181 0.2251875 0.09153127
-0.04605329 0.2280528 0.0915416
-0.04607367 0.230918 0.09155139
-0.04609298 0.2337833 0.09156066
-0.04611127 0.2366485 0.09156943
-0.04612859 0.2395138 0.09157772
-0.04614497 0.242379 0.09158556
-0.04616045 0.2452443 0.09159296
-0.04617507 0.2481096 0.09159994
-0.04618887 0.2509749 0.09160652
-0.04620187 0.2538402 0.09161271
-0.0462141 0.2567055 0.09161853
-0.0462256 0.2595708 0.091624
-0.04623639 0.2624361 0.09162913
-0.04624649 0.2653014 0.09163392
-0.04625594 0.2681667 0.0916384
-0.04626474 0.271032 0.09164257
-0.04627292 0.2738973 0.09164645
-0.04628051 0.2767627 0.09165004
-0.04628751 0.279628 0.09165335
-0.04629395 0.2824933 0.09165639
-0.04629983 0.2853586 0.09165917
-0.04630518 0.2882239 0.09166169
-0.04631 0.2910893 0.09166397
-0.04631431 0.2939546 0.091666
-0.04631812 0.2968199 0.09166779
-0.04632143 0.2996852 0.09166935
-0.04632425 0.3025506 0.09167068
-0.0463266 0.3054159 0.09167178
-0.04632846 0.3082812 0.09167266
-0.04632986 0.3111466 0.09167332
-0.04633079 0.3140119 0.09167376
-0.04633126 0.3168772 0.09167397
-0.04633126 0.3197426 0.09167397
-0.04633079 0.3226079 0.09167376
-0.04632986 0.3254732 0.09167332
-0.04632846 0.3283385 0.09167266
-0.0463266 0.3312039 0.09167178
-0.04632425 0.3340692 0.09167068
-0.04632143 0.3369345 0.09166935
-0.04631812 0.3397999 0.09166779
-0.04631431 0.3426652 0.091666
-0.04631 0.3455305 0.09166397
-0.04630518 0.3483958 0.09166169
-0.04629983 0.3512612 0.09165917
-0.04629395 0.3541265 0.09165639
-0.04628751 0.3569918 0.09165335
-0.04628051 0.3598571 0.09165004
-0.04627292 0.3627224 0.09164645
-0.04626474 0.3655877 0.09164257
-0.04625594 0.3684531 0.0916384
-0.04624649 0.3713184 0.09163392
-0.04623639 0.3741837 0.09162913
-0.0462256 0.377049 0.091624
-0.0462141 0.3799143 0.09161853
-0.04620187 0.3827796 0.09161271
-0.04618887 0.3856449 0.09160652
-0.04617507 0.3885102 0.09159994
-0.04616045 0.3913754 0.09159296
-0.04614497 0.3942407 0.09158556
-0.04612859 0.397106 0.09157772
-0.04611127 0.3999713 0.09156943
-0.04609298 0.4028365 0.09156066
-0.04607367 0.4057018 0.09155139
-0.04605329 0.408567 0.0915416
-0.04603181 0.4114322 0.09153127
-0.04600916 0.4142975 0.09152036
-0.0459853 0.4171627 0.09150886
-0.04596017 0.4200279 0.09149673
-0.04593371 0.422893 0.09148395
-0.04590587 0.4257582 0.09147047
-0.04587657 0.4286233 0.09145628
-0.04584575 0.4314885 0.09144134
-0.04581333 0.4343536 0.0914256
-0.04577925 0.4372187 0.09140903
-0.04574341 0.4400837 0.09139159
-0.04570574 0.4429487 0.09137324
-0.04566616 0.4458137 0.09135393
-0.04562456 0.4486787 0.09133361
-0.04558085 0.4515436 0.09131224
-0.04553493 0.4544085 0.09128976
-0.04548669 0.4572733 0.09126611
-0.04543602 0.4601381 0.09124124
-0.04538281 0.4630028 0.09121509
-0.04532692 0.4658674 0.0911876
-0.04526823 0.468732 0.09115869
-0.0452066 0.4715965 0.09112829
-0.04514189 0.4744609 0.09109634
-0.04507394 0.4773253 0.09106274
-0.0450026 0.4801895 0.09102742
-0.04492771 0.4830536 0.0909903
-0.04484908 0.4859176 0.09095127
-0.04476654 0.4887814 0.09091025
-0.0446799 0.4916451 0.09086713
-0.04458894 0.4945087 0.0908218
-0.04449347 0.497372 0.09077416
-0.04439325 0.5002351 0.09072408
-0.04428806 0.503098 0.09067144
-0.04417766 0.5059607 0.09061611
-0.04406177 0.5088231 0.09055796
-0.04394014 0.5116852 0.09049683
-0.04381249 0.514547 0.09043257
-0.04367851 0.5174084 0.09036503
-0.0435379 0.5202694 0.09029403
-0.04339033 0.5231299 0.09021939
-0.04323545 0.52599 0.09014093
-0.04307292 0.5288495 0.09005845
-0.04290234 0.5317084 0.08997174
-0.04272334 0.5345667 0.08988057
-0.04253549 0.5374243 0.08978473
-0.04233835 0.540281 0.08968395
-0.04213149 0.5431369 0.089578
-0.04191441 0.5459918 0.08946658
-0.04168661 0.5488457 0.08934942
-0.04144758 0.5516984 0.08922622
-0.04119676 0.5545498 0.08909665
-0.04093359 0.5573997 0.08896038
-0.04065745 0.5602481 0.08881705
-0.04036771 0.5630948 0.08866629
-0.04006372 0.5659395 0.08850771
-0.03974479 0.5687822 0.08834089
-0.03941019 0.5716225 0.08816539
-0.03905918 0.5744602 0.08798074
-0.03869095 0.5772951 0.08778647
-0.0383047 0.5801269 0.08758204
-0.03789955 0.5829553 0.08736693
-0.03747463 0.5857799 0.08714055
-0.03702898 0.5886003 0.08690229
-0.03656165 0.5914161 0.08665154
-0.03607162 0.5942269 0.08638759
-0.03555783 0.5970321 0.08610976
-0.03501921 0.5998311 0.0858173
-0.03445461 0.6026233 0.0855094
-0.03386286 0.605408 0.08518526
-0.03324276 0.6081846 0.08484398
-0.03259304 0.610952 0.08448466
-0.03191242 0.6137095 0.08410631
-0.03119957 0.616456 0.08370794
-0.03045313 0.6191904 0.08328846
-0.02967169 0.6219115 0.08284675
-0.02885383 0.624618 0.08238163
-0.0279981 0.6273083 0.08189187
-0.02710303 0.629981 0.08137616
-0.02616713 0.6326342 0.08083317
-0.02518891 0.6352659 0.08026147
-0.02416688 0.6378743 0.07965958
-0.02309956 0.6404568 0.07902597
-0.02198549 0.643011 0.07835905
-0.02082328 0.6455343 0.07765717
-0.01961156 0.6480235 0.07691861
-0.01834906 0.6504756 0.07614161
-0.0170346 0.6528869 0.07532438
-0.01566711 0.6552537 0.07446507
-0.01424571 0.6575718 0.0735618
-0.01276967 0.6598369 0.07261269
-0.01123849 0.6620441 0.07161583
-0.009651954 0.6641884 0.07056933
-0.008010129 0.6662642 0.06947133
-0.006313451 0.6682657 0.06832002
-0.004562769 0.6701866 0.06711366
-0.002759399 0.6720204 0.06585063
-0.0009051937 0.67376 0.06452944
0.0009973953 0.6753983 0.06314879
0.002945248 0.6769277 0.06170758
0.004934502 0.6783403 0.06020503
0.006960488 0.6796279 0.05864063
0.009017652 0.6807826 0.05701429
0.0110995 0.681796 0.05532636
0.01319852 0.6826599 0.05357768
0.01530616 0.6833663 0.05176967
0.01741276 0.6839077 0.04990439
0.01950759 0.6842767 0.04798458
0.02157877 0.6844669 0.04601376
0.02361338 0.6844726 0.04399622
0.02559748 0.6842893 0.04193712
0.02751621 0.6839138 0.03984247
0.02935394 0.6833444 0.03771913
0.03109443 0.682581 0.03557483
0.03272108 0.6816256 0.03341811
0.03421711 0.6804824 0.03125823
0.03556593 0.6791577 0.02910511
0.0367514 0.6776602 0.02696917
0.03775823 0.6760011 0.02486118
0.03857225 0.6741937 0.0227921
0.03918082 0.672254 0.02077287
0.03957312 0.6701998 0.01881417
0.03974046 0.6680509 0.01692624
0.03967652 0.6658286 0.01511862
0.03937751 0.6635555 0.0134
0.03884236 0.6612549 0.01177796
0.03807265 0.6589506 0.01025886
0.03707269 0.6566661 0.008847715
0.0358493 0.6544246 0.0075481
0.0344117 0.6522481 0.006362118
0.03277121 0.6501576 0.005290402
0.030941 0.6481721 0.004332165
0.0289357 0.6463089 0.003485284
0.02677111 0.644583 0.002746415
0.02446379 0.6430073 0.002111133
0.02203076 0.6415923 0.001574092
0.01948914 0.6403464 0.001129195
0.01685587 0.6392755 0.0007697588
0.01414743 0.6383836 0.0004886862
0.01137966 0.6376727 0.0002786221
0.008567554 0.6371429 0.000132099
0.005725125 0.6367928 4.166589e-05
0.00286533 0.6366198 0
0 0.6366198 0

LINES 349 1047
2 0 1
2 1 2
2 2 3
2 3 4
2 4 5
2 5 6
2 6 7
2 7 8
2 8 9
2 9 10
2 10 11
2 11 12
2 12 13
2 13 14
2 14 15
2 15 16
2 16 17
2 17 18
2 18 19
2 19 20
2 20 21
2 21 22
2 22 23
2 23 24
2 24 25
2 25 26
2 26 27
2 27 28
2 28 29
2 29 30
2 30 31
2 31 32
2 32 33
2 33 34
2 34 35
2 35 36
2 36 37
2 37 38
2 38 39
2 39 40
2 40 41
2 41 42
2 42 43
2 43 44
2 44 45
2 45 46
2 46 47
2 47 48
2 48 49
2 49 50
2 50 51
2 51 52
2 52 53
2 53 54
2 54 55
2 55 56
2 56 57
2 57 58
2 58 59
2 59 60
2 60 61
2 61 62
2 62 63
2 63 64
2 64 65
2 65 66
2 66 67
2 67 68
2 68 69
2 69 70
2 70 71
2 71 72
2 72 73
2 73 74
2 74 75
2 75 76
2 76 77
2 77 78
2 78 79
2 79 80
2 80 81
2 81 82
2 82 83
2 83 84
2 84 85
2 85 86
2 86 87
2 87 88
2 88 89
2 89 90
2 90 91
2 91 92
2 92 93
2 93 94
2 94 95
2 95 96
2 96 97
2 97 98
2 98 99
2 99 100
2 100 101
2 101 102
2 102 103
2 103 104
2 104 105
2 105 106
2 106 107
2 107 108
2 108 109
2 109 110
2 110 111
2 111 112
2 112 113
2 113 114
2 114 115
2 115 116
2 116 117
2 117 118
2 118 119
2 119 120
2 120 121
2 121 122
2 122 123
2 123 124
2 124 125
2 125 126
2 126 127
2 127 128
2 128 129
2 129 130
2 130 131
2 131 132
2 132 133
2 133 134
2 134 135
2 135 136
2 136 137
2 137 138
2 138 139
2 139 140
2 140 141
2 141 142
2 142 143
2 143 144
2 144 145
2 145 146
2 146 147
2 147 148
2 148 149
2 149 150
2 150 151
2 151 152
2 152 153
2 153 154
2 154 155
2 155 156
2 156 157
2 157 158
2 158 159
2 159 160
2 160 161
2 161 162
2 162 163
2 163 164
2 164 165
2 165 166
2 166 167
2 167 168
2 168 169
2 169 170
2 170 171
2 171 172
2 172 173
2 173 174
2 174 175
2 175 176
2 176 177
2 177 178
2 178 179
2 179 180
2 180 181
2 181 182
2 182 183
2 183 184
2 184 185
2 185 186
2 186 187
2 187 188
2 188 189
2 189 190
2 190 191
2 191 192
2 192 193
2 193 194
2 194 195
2 195 196
2 196 197
2 197 198
2 198 199
2 199 200
2 200 201
2 201 202
2 202 203
2 203 204
2 204 205
2 205 206
2 206 207
2 207 208
2 208 209
2 209 210
2 210 211
2 211 212
2 212 213
2 213 214
2 214 215
2 215 216
2 216 217
2 217 218
2 218 219
2 219 220
2 220 221
2 221 222
2 222 223
2 223 224
2 224 225
2 225 226
2 226 227
2 227 228
2 228 229
2 229 230
2 230 231
2 231 232
2 232 233
2 233 234
2 234 235
2 235 236
2 236 237
2 237 238
2 238 239
2 239 240
2 240 241
2 241 242
2 242 243
2 243 244
2 244 245
2 245 246
2 246 247
2 247 248
2 248 249
2 249 250
2 250 251
2 251 252
2 252 253
2 253 254
2 254 255
2 255 256
2 256 257
2 257 258
2 258 259
2 259 260
2 260 261
2 261 262
2 262 263
2 263 264
2 264 265
2 265 266
2 266 267
2 267 268
2 268 269
2 269 270
2 270 271
2 271 272
2 272 273
2 273 274
2 274 275
2 275 276
2 276 277
2 277 278
2 278 279
2 279 280
2 280 281
2 281 282
2 282 283
2 283 284
2 284 285
2 285 286
2 286 287
2 287 288
2 288 289
2 289 290
2 290 291
2 291 292
2 292 293
2 293 294
2 294 295
2 295 296
2 296 297
2 297 298
2 298 299
2 299 300
2 300 301
2 301 302
2 302 303
2 303 304
2 304 305
2 305 306
2 306 307
2 307 308
2 308 309
2 309 310
2 310 311
2 311 312
2 312 313
2 313 314
2 314 315
2 315 316
2 316 317
2 317 318
2 318 319
2 319 320
2 320 321
2 321 322
2 322 323
2 323 324
2 324 325
2 325 326
2 326 327
2 327 328
2 328 329
2 329 330
2 330 331
2 331 332
2 332 333
2 333 334
2 334 335
2 335 336
2 336 337
2 337 338
2 338 339
2 339 340
2 340 341
2 341 342
2 342 343
2 343 344
2 344 345
2 345 346
2 346 347
2 347 348
2 348 349


POINT_DATA 350
SCALARS a FLOAT 1
LOOKUP_TABLE default
0.0005894628
0.0005894628
0.0005894628
0.0005894628
0.0005894628
0.0005894628
0.0005894628
0.0005894628
0.0005894628
0.0005894628
0.0005894628
0.0005894628
0.0005894628
0.0005894628
0.0005894628
0.0005894628
0.0005894628
0.0005894628
0.0005894628
0.0005894628
0.0005894628
0.0005894628
0.0005894628
0.0005894628
0.0005894628
0.0005894628
0.0005894628
0.0005894628
0.0005894628
0.0005894628
0.0005894628
0.0005894628
0.0005894628
0.0005894628
0.0005894628
0.0005894628
0.0005894628
0.0005894628
0.0005894628
0.0005894628
0.0005894628
0.0005894628
0.0005894628
0.0005894628
0.0005894628
0.0005894628
0.0005894628
0.0005894628
0.0005894628
0.0005894628
0.0005894628
0.0005894628
0.0005894628
0.0005894628
0.0005894628
0.0005894628
0.0005894628
0.0005894628
0.0005894628
0.0005894628
0.0005894628
0.0005894628
0.0005894628
0.0005894628
0.0005894628
0.0005894628
0.0005894628
0.0005894628
0.0005894628
0.0005894628
0.0005894628
0.0005894628
0.0005894628
0.0005894628
0.0005894628
0.0005894628
0.0005894628
0.0005894628
0.0005894628
0.0005894628
0.0005894628
0.0005894628
0.0005894628
0.0005894628
0.0005894628
0.0005894628
0.0005894628
0.0005894628
0.0005894628
0.0005894628
0.0005894628
0.0005894628
0.0005894628
0.0005894628
0.0005894628
0.0005894628
0.0005894628
0.0005894628
0.0005894628
0.0005894628
0.0005894628
0.0005894628
0.0005894628
0.0005894628
0.0005894628
0.0005894628
0.0005894628
0.0005894628
0.0005894628
0.0005894628
0.0005894628
0.0005894628
0.0005894628
0.0005894628
0.0005894628
0.0005894628
0.0005894628
0.0005894628
0.0005894628
0.0005894628
0.0005894628
0.0005894628
0.0005894628
0.0005894628
0.0005894628
0.0005894628
0.0005894628
0.0005894628
0.0005894628
0.0005894628
0.0005894628
0.0005894628
0.0005894628
0.0005894628
0.0005894628
0.0005894628
0.0005894628
0.0005894628
0.0005894628
0.0005894628
0.0005894628
0.0005894628
0.0005894628
0.0005894628
0.0005894628
0.0005894628
0.0005894628
0.0005894628
0.0005894628
0.0005894628
0.0005894628
0.0005894628
0.0005894628
0.0005894628
0.0005894628
0.0005894628
0.0005894628
0.0005894628
0.0005894628
0.0005894628
0.0005894628
0.0005894628
0.0005894628
0.0005894628
0.0005894628
0.0005894628
0.0005894628
0.0005894628
0.0005894628
0.0005894628
0.0005894628
0.0005894628
0.0005894628
0.0005894628
0.0005894628
0.0005894628
0.0005894628
0.0005894628
0.0005894628
0.0005894628
0.0005894628
0.0005894628
0.0005894628
0.0005894628
0.0005894628
0.0005894628
0.0005894628
0.0005894628
0.0005894628
0.0005894628
0.0005894628
0.0005894628
0.0005894628
0.0005894628
0.0005894628
0.0005894628
0.0005894628
0.0005894628
0.0005894628
0.0005894628
0.0005894628
0.0005894628
0.0005894628
0.0005894628
0.0005894628
0.0005894628
0.0005894628
0.0005894628
0.0005894628
0.0005894628
0.0005894628
0.0005894628
0.0005894628
0.0005894628
0.0005894628
0.0005894628
0.0005894628
0.0005894628
0.0005894628
0.0005894628
0.0005894628
0.0005894628
0.0005894628
0.0005894628
0.0005894628
0.0005894628
0.0005894628
0.0005894628
0.0005894628
0.0005894628
0.0005894628
0.0005894628
0.0005894628
0.0005894628
0.0005894628
0.0005894628
0.0005894628
0.0005894628
0.0005894628
0.0005894628
0.0005894628
0.0005894628
0.0005894628
0.0005894628
0.0005894628
0.0005894628
0.0005894628
0.0005894628
0.0005894628
0.0005894628
0.0005894628
0.0005894628
0.0005894628
0.0005894628
0.0005894628
0.0005894628
0.0005894628
0.0005894628
0.0005894628
0.0005894628
0.0005894628
0.0005894628
0.0005894628
0.0005894628
0.0005894628
0.0005894628
0.0005894628
0.0005894628
0.0005894628
0.0005894628
0.0005894628
0.0005894628
0.0005894628
0.0005894628
0.0005894628
0.0005894628
0.0005894628
0.0005894628
0.0005894628
0.0005894628
0.0005894628
0.0005894628
0.0005894628
0.0005894628
0.0005894628
0.0005894628
0.0005894628
0.0005894628
0.0005894628
0.0005894628
0.0005894628
0.0005894628
0.0005894628
0.0005894628
0.0005894628
0.0005894628
0.0005894628
0.0005894628
0.0005894628
0.0005894628
0.0005894628
0.0005894628
0.0005894628
0.0005894628
0.0005894628
0.0005894628
0.0005894628
0.0005894628
0.0005894628
0.0005894628
0.0005894628
0.0005894628
0.0005894628
0.0005894628
0.0005894628
0.0005894628
0.0005894628
0.0005894628
0.0005894628
0.0005894628
0.0005894628
0.0005894628
0.0005894628
0.0005894628
0.0005894628
0.0005894628
0.0005894628
0.0005894628
0.0005894628
0.0005894628
0.0005894628
0.0005894628
0.0005894628
0.0005894628
0.0005894628
0.0005894628
0.0005894628
0.0005894628
0.0005894628
0.0005894628
0.0005894628
0.0005894628
0.0005894628
0.0005894628
0.0005894628
0.0005894628
0.0005894628
0.0005894628
0.0005894628
0.0005894628


SCALARS b FLOAT 1
LOOKUP_TABLE default
0.04420971
0.04420971
0.04420971
0.04420971
0.04420971
0.04420971
0.04420971
0.04420971
0.04420971
0.04420971
0.04420971
0.04420971
0.04420971
0.04420971
0.04420971
0.04420971
0.04420971
0.04420971
0.04420971
0.04420971
0.04420971
0.04420971
0.04420971
0.04420971
0.04420971
0.04420971
0.04420971
0.04420971
0.04420971
0.04420971
0.04420971
0.04420971
0.04420971
0.04420971
0.04420971
0.04420971
0.04420971
0.04420971
0.04420971
0.04420971
0.04420971
0.04420971
0.04420971
0.04420971
0.04420971
0.04420971
0.04420971
0.04420971
0.04420971
0.04420971
0.04420971
0.04420971
0.04420971
0.04420971
0.04420971
0.04420971
0.04420971
0.04420971
0.04420971
0.04420971
0.04420971
0.04420971
0.04420971
0.04420971
0.04420971
0.04420971
0.04420971
0.04420971
0.04420971
0.04420971
0.04420971
0.04420971
0.04420971
0.04420971
0.04420971
0.04420971
0.04420971
0.04420971
0.04420971
0.04420971
0.04420971
0.04420971
0.04420971
0.04420971
0.04420971
0.04420971
0.04420971
0.04420971
0.04420971
0.04420971
0.04420971
0.04420971
0.04420971
0.04420971
0.04420971
0.04420971
0.04420971
0.04420971
0.04420971
0.04420971
0.04420971
0.04420971
0.04420971
0.04420971
0.04420971
0.04420971
0.04420971
0.04420971
0.04420971
0.04420971
0.04420971
0.04420971
0.04420971
0.04420971
0.04420971
0.04420971
0.04420971
0.04420971
0.04420971
0.04420971
0.04420971
0.04420971
0.04420971
0.04420971
0.04420971
0.04420971
0.04420971
0.04420971
0.04420971
0.04420971
0.04420971
0.04420971
0.04420971
0.04420971
0.04420971
0.04420971
0.04420971
0.04420971
0.04420971
0.04420971
0.04420971
0.04420971
0.04420971
0.04420971
0.04420971
0.04420971
0.04420971
0.04420971
0.04420971
0.04420971
0.04420971
0.04420971
0.04420971
0.04420971
0.04420971
0.04420971
0.04420971
0.04420971
0.04420971
0.04420971
0.04420971
0.04420971
0.04420971
0.04420971
0.04420971
0.04420971
0.04420971
0.04420971
0.04420971
0.04420971
0.04420971
0.04420971
0.04420971
0.04420971
0.04420971
0.04420971
0.04420971
0.04420971
0.04420971
0.04420971
0.04420971
0.04420971
0.04420971
0.04420971
0.04420971
0.04420971
0.04420971
0.04420971
0.04420971
0.04420971
0.04420971
0.04420971
0.04420971
0.04420971
0.04420971
0.04420971
0.04420971
0.04420971
0.04420971
0.04420971
0.04420971
0.04420971
0.04420971
0.04420971
0.04420971
0.04420971
0.04420971
0.04420971
0.04420971
0.04420971
0.04420971
0.04420971
0.04420971
0.04420971
0.04420971
0.04420971
0.04420971
0.04420971
0.04420971
0.04420971
0.04420971
0.04420971
0.04420971
0.04420971
0.04420971
0.04420971
0.04420971
0.04420971
0.04420971
0.04420971
0.04420971
0.04420971
0.04420971
0.04420971
0.04420971
0.04420971
0.04420971
0.04420971
0.04420971
0.04420971
0.04420971
0.04420971
0.04420971
0.04420971
0.04420971
0.04420971
0.04420971
0.04420971
0.04420971
0.04420971
0.04420971
0.04420971
0.04420971
0.04420971
0.04420971
0.04420971
0.04420971
0.04420971
0.04420971
0.04420971
0.04420971
0.04420971
0.04420971
0.04420971
0.04420971
0.04420971
0.04420971
0.04420971
0.04420971
0.04420971
0.04420971
0.04420971
0.04420971
0.04420971
0.04420971
0.04420971
0.04420971
0.04420971
0.04420971
0.04420971
0.04420971
0.04420971
0.04420971
0.04420971
0.04420971
0.04420971
0.04420971
0.04420971
0.04420971
0.04420971
0.04420971
0.04420971
0.04420971
0.04420971
0.04420971
0.04420971
0.04420971
0.04420971
0.04420971
0.04420971
0.04420971
0.04420971
0.04420971
0.04420971
0.04420971
0.04420971
0.04420971
0.04420971
0.04420971
0.04420971
0.04420971
0.04420971
0.04420971
0.04420971
0.04420971
0.04420971
0.04420971
0.04420971
0.04420971
0.04420971
0.04420971
0.04420971
0.04420971
0.04420971
0.04420971
0.04420971
0.04420971
0.04420971
0.04420971
0.04420971
0.04420971
0.04420971
0.04420971
0.04420971
0.04420971
0.04420971
0.04420971
0.04420971
0.04420971
0.04420971
0.04420971
0.04420971
0.04420971
0.04420971
0.04420971
0.04420971
0.04420971
0.04420971
0.04420971
0.04420971


VECTORS d1 FLOAT
0 -0.9758482 0.2184498
-0.06211372 -0.9664423 0.2492612
-0.1261101 -0.9518678 0.2793633
-0.1916113 -0.9317463 0.3084379
-0.2581647 -0.9057374 0.336141
-0.3252424 -0.8735533 0.3621077
-0.392243 -0.8349742 0.3859579
-0.4584967 -0.7898636 0.4073037
-0.5232733 -0.7381832 0.4257589
-0.5857942 -0.6800067 0.4409491
-0.6452479 -0.6155307 0.4525231
-0.7008085 -0.5450827 0.4601654
-0.7516576 -0.4691251 0.4636081
-0.7970079 -0.3882533 0.4626422
-0.8361276 -0.3031894 0.4571288
-0.8683657 -0.2147697 0.4470066
-0.8931743 -0.1239267 0.4322984
-0.9101289 -0.03166625 0.4131133
-0.9189447 0.06095925 0.3896467
-0.919487 0.1528804 0.3621756
-0.9117762 0.2430412 0.3310515
-0.8959864 0.3304296 0.2966896
-0.8724378 0.4141049 0.2595563
-0.8415839 0.4932227 0.2201542
-0.8039938 0.5670541 0.1790071
-0.7603305 0.6350006 0.1366445
-0.7113278 0.696602 0.09358654
-0.6577659 0.751539 0.05033155
-0.6004471 0.7996308 0.007344275
-0.5401739 0.8408272 -0.03495286
-0.4777288 0.8751976 -0.0761862
-0.4138568 0.9029166 -0.116035
-0.3492526 0.9242482 -0.1542329
-0.2845498 0.9395293 -0.190568
-0.2203144 0.9491524 -0.2248807
-0.1570411 0.9535503 -0.2570602
-0.09515232 0.9531809 -0.2870405
-0.03499976 0.9485141 -0.3147951
0.0231327 0.9400207 -0.3403321
0.07902435 0.9281626 -0.3636886
0.1325122 0.9133854 -0.3849254
0.183485 0.8961128 -0.4041227
0.2318771 0.876742 -0.4213746
0.2776619 0.8556412 -0.436786
0.3208463 0.833148 -0.4504686
0.3614649 0.8095689 -0.4625379
0.3995745 0.7851793 -0.4731106
0.4352498 0.7602246 -0.4823029
0.4685792 0.7349215 -0.4902284
0.4996611 0.7094595 -0.496997
0.5286006 0.6840031 -0.5027139
0.555507 0.6586934 -0.507479
0.580492 0.6336506 -0.5113863
0.603667 0.6089756 -0.5145239
0.6251427 0.5847522 -0.5169734
0.6450269 0.5610488 -0.5188107
0.6634244 0.5379205 -0.5201054
0.6804362 0.5154102 -0.5209213
0.6961586 0.4935506 -0.5213167
0.7106834 0.4723653 -0.5213446
0.7240974 0.4518702 -0.521053
0.7364826 0.4320744 -0.5204855
0.7479159 0.4129813 -0.5196809
0.7584693 0.3945896 -0.5186746
0.7682103 0.3768939 -0.5174978
0.7772015 0.3598855 -0.5161786
0.7855012 0.3435528 -0.514742
0.7931637 0.3278823 -0.5132101
0.800239 0.3128583 -0.5116026
0.8067736 0.2984641 -0.5099368
0.8128105 0.2846817 -0.5082278
0.8183892 0.2714924 -0.506489
0.8235462 0.2588771 -0.5047319
0.8283152 0.2468162 -0.5029669
0.8327273 0.2352901 -0.5012024
0.8368108 0.2242791 -0.4994462
0.8405921 0.2137638 -0.4977046
0.8440953 0.2037248 -0.4959832
0.8473424 0.1941432 -0.4942865
0.850354 0.1850004 -0.4926185
0.8531485 0.1762783 -0.4909823
0.8557432 0.1679591 -0.4893806
0.8581538 0.1600256 -0.4878154
0.8603948 0.1524612 -0.4862884
0.8624794 0.1452497 -0.4848008
0.8644198 0.1383755 -0.4833536
0.8662271 0.1318236 -0.4819473
0.8679115 0.1255794 -0.4805824
0.8694825 0.1196291 -0.4792589
0.8709487 0.1139591 -0.4779767
0.8723179 0.1085567 -0.4767357
0.8735974 0.1034094 -0.4755355
0.8747939 0.09850553 -0.4743757
0.8759135 0.09383359 -0.4732556
0.8769617 0.0893828 -0.4721747
0.8779437 0.08514276 -0.4711322
0.8788643 0.08110355 -0.4701273
0.8797278 0.07725571 -0.4691593
0.8805383 0.07359017 -0.4682274
0.8812993 0.0700983 -0.4673305
0.8820142 0.06677187 -0.466468
0.8826863 0.06360301 -0.4656388
0.8833184 0.06058424 -0.464842
0.8839131 0.05770841 -0.4640768
0.884473 0.05496872 -0.4633422
0.8850002 0.05235868 -0.4626372
0.8854969 0.04987212 -0.461961
0.8859651 0.04750315 -0.4613126
0.8864065 0.04524618 -0.4606911
0.8868228 0.04309585 -0.4600957
0.8872156 0.04104709 -0.4595253
0.8875864 0.03909506 -0.4589792
0.8879365 0.03723513 -0.4584565
0.888267 0.03546292 -0.4579564
0.8885794 0.03377425 -0.4574779
0.8888745 0.03216512 -0.4570203
0.8891534 0.03063174 -0.4565829
0.8894171 0.02917048 -0.4561647
0.8896665 0.02777791 -0.4557652
0.8899024 0.02645075 -0.4553835
0.8901255 0.02518585 -0.4550189
0.8903367 0.02398024 -0.4546708
0.8905366 0.02283109 -0.4543384
0.8907257 0.02173567 -0.4540212
0.8909048 0.02069141 -0.4537185
0.8910744 0.01969586 -0.4534297
0.891235 0.01874666 -0.4531542
0.8913871 0.01784159 -0.4528915
0.8915312 0.0169785 -0.452641
0.8916677 0.01615537 -0.4524022
0.891797 0.01537026 -0.4521747
0.8919195 0.01462133 -0.4519578
0.8920355 0.0139068 -0.4517513
0.8921455 0.013225 -0.4515546
0.8922497 0.01257432 -0.4513673
0.8923483 0.01195323 -0.451189
0.8924418 0.01136027 -0.4510194
0.8925304 0.01079405 -0.450858
0.8926143 0.01025322 -0.4507046
0.8926937 0.009736526 -0.4505587
0.8927689 0.009242742 -0.45042
0.8928401 0.008770708 -0.4502883
0.8929075 0.008319314 -0.4501633
0.8929712 0.007887496 -0.4500446
0.8930315 0.00747424 -0.449932
0.8930885 0.007078573 -0.4498253
0.8931423 0.006699563 -0.4497242
0.8931932 0.006336318 -0.4496285
0.8932411 0.005987985 -0.449538
0.8932864 0.005653742 -0.4494524
0.893329 0.005332804 -0.4493717
0.8933691 0.005024416 -0.4492955
0.8934068 0.004727851 -0.4492237
0.8934422 0.004442413 -0.4491562
0.8934754 0.004167428 -0.4490928
0.8935065 0.003902251 -0.4490333
0.8935355 0.003646257 -0.4489777
0.8935626 0.003398843 -0.4489258
0.8935878 0.003159428 -0.4488774
0.8936111 0.002927448 -0.4488325
0.8936327 0.002702358 -0.448791
0.8936525 0.002483627 -0.4487527
0.8936707 0.00227074 -0.4487176
0.8936873 0.002063198 -0.4486856
0.8937023 0.00186051 -0.4486567
0.8937157 0.001662202 -0.4486306
0.8937277 0.001467805 -0.4486075
0.8937381 0.001276862 -0.4485873
0.8937471 0.001088924 -0.4485698
0.8937547 0.0009035487 -0.4485551
0.8937609 0.0007202999 -0.4485431
0.8937657 0.0005387461 -0.4485338
0.8937691 0.0003584602 -0.4485271
0.8937712 0.000179018 -0.4485232
0.8937719 -3.018998e-09 -0.4485218
0.8937712 -0.000179024 -0.4485232
0.8937691 -0.0003584663 -0.4485271
0.8937657 -0.0005387522 -0.4485338
0.8937609 -0.0007203059 -0.4485431
0.8937547 -0.0009035548 -0.4485551
0.8937471 -0.00108893 -0.4485698
0.8937381 -0.001276868 -0.4485873
0.8937277 -0.001467811 -0.4486075
0.8937157 -0.001662208 -0.4486306
0.8937023 -0.001860516 -0.4486567
0.8936873 -0.002063204 -0.4486856
0.8936707 -0.002270746 -0.4487176
0.8936525 -0.002483633 -0.4487527
0.8936327 -0.002702364 -0.448791
0.8936111 -0.002927454 -0.4488325
0.8935878 -0.003159434 -0.4488774
0.8935626 -0.003398849 -0.4489258
0.8935355 -0.003646263 -0.4489777
0.8935065 -0.003902257 -0.4490333
0.8934754 -0.004167434 -0.4490928
0.8934422 -0.004442419 -0.4491562
0.8934068 -0.004727857 -0.4492237
0.8933691 -0.005024422 -0.4492955
0.893329 -0.00533281 -0.4493717
0.8932864 -0.005653748 -0.4494524
0.8932411 -0.00598799 -0.449538
0.8931932 -0.006336324 -0.4496285
0.8931423 -0.006699568 -0.4497242
0.8930885 -0.007078578 -0.4498253
0.8930315 -0.007474246 -0.449932
0.8929712 -0.007887502 -0.4500446