# vtk DataFile Version 2.0
Written badly by Kevin Korner
ASCII
DATASET POLYDATA
POINTS 350 FLOAT
0 0 0
0.00286533 0 0
0.005727759 -0.0001004222 8.077693e-05
0.008581253 -0.0003002694 0.0002473582
0.01141944 -0.0005979893 0.0005046303
0.01423563 -0.0009914449 0.0008572843
0.01702288 -0.001477888 0.001309758
0.019774 -0.002053939 0.001866177
0.02248164 -0.002715577 0.002530297
0.0251383 -0.003458129 0.00330544
0.02773646 -0.004276282 0.00419444
0.03026857 -0.005164089 0.005199591
0.03272718 -0.006114995 0.006322589
0.03510499 -0.007121873 0.007564496
0.03739493 -0.008177061 0.008925693
0.03959025 -0.009272422 0.01040586
0.04168456 -0.0103994 0.01200395
0.04367195 -0.0115491 0.01371818
0.04554703 -0.01271236 0.01554602
0.04730501 -0.01387983 0.01748423
0.04894171 -0.01504207 0.01952886
0.05045368 -0.01618963 0.02167529
0.05183817 -0.01731316 0.02391828
0.05309318 -0.01840348 0.026252
0.0542175 -0.01945167 0.02867012
0.05521066 -0.02044918 0.03116586
0.05607295 -0.02138785 0.03373208
0.05680543 -0.02226003 0.03636132
0.05740983 -0.02305863 0.03904591
0.05788858 -0.02377712 0.04177807
0.05824472 -0.02440966 0.04454992
0.05848186 -0.02495101 0.04735364
0.05860414 -0.02539668 0.05018145
0.05861612 -0.02574281 0.05302577
0.05852277 -0.02598626 0.05587922
0.05832938 -0.02612455 0.05873466
0.05804146 -0.02615586 0.06158532
0.05766476 -0.026079 0.06442474
0.05720512 -0.02589336 0.06724686
0.05666847 -0.0255989 0.07004604
0.05606074 -0.0251961 0.07281706
0.05538784 -0.02468589 0.07555513
0.0546556 -0.02406966 0.0782559
0.05386972 -0.02334915 0.08091548
0.05303577 -0.02252645 0.0835304
0.05215911 -0.02160394 0.08609761
0.05124493 -0.02058424 0.08861447
0.05029817 -0.01947018 0.09107874
0.04932353 -0.01826476 0.09348855
0.04832549 -0.01697111 0.09584237
0.04730823 -0.01559243 0.09813901
0.0462757 -0.01413203 0.1003776
0.04523159 -0.01259321 0.1025575
0.04417931 -0.01097931 0.1046784
0.04312203 -0.009293649 0.1067401
0.04206267 -0.007539525 0.1087429
0.0410039 -0.00572018 0.1106868
0.03994816 -0.003838799 0.1125726
0.03889768 -0.001898494 0.1144006
0.03785447 9.770573e-05 0.1161718
0.03682032 0.002146862 0.1178869
0.03579685 0.004246134 0.1195469
0.03478551 0.00639278 0.1211529
0.03378754 0.008584167 0.122706
0.03280408 0.01081776 0.1242073
0.03183607 0.01309115 0.1256581
0.03088435 0.01540202 0.1270596
0.02994962 0.01774817 0.1284131
0.02903247 0.02012749 0.1297199
0.02813337 0.02253799 0.1309814
0.02725272 0.02497777 0.1321987
0.0263908 0.02744505 0.1333734
0.02554784 0.02993813 0.1345066
0.02472397 0.03245539 0.1355996
0.02391927 0.03499533 0.1366538
0.02313375 0.0375565 0.1376704
0.02236737 0.04013757 0.1386506
0.02162005 0.04273726 0.1395957
0.02089166 0.04535438 0.1405069
0.02018203 0.0479878 0.1413853
0.01949095 0.05063647 0.1422321
0.01881821 0.05329939 0.1430484
0.01816353 0.05597563 0.1438353
0.01752664 0.05866433 0.1445939
0.01690725 0.06136466 0.1453251
0.01630504 0.06407586 0.14603
0.01571968 0.0667972 0.1467095
0.01515084 0.06952803 0.1473646
0.01459816 0.07226769 0.1479962
0.01406129 0.07501562 0.1486051
0.01353988 0.07777125 0.1491923
0.01303355 0.08053408 0.1497584
0.01254195 0.08330362 0.1503044
0.0120647 0.08607942 0.1508309
0.01160144 0.08886107 0.1513388
0.01115181 0.09164818 0.1518287
0.01071544 0.09444037 0.1523013
0.01029198 0.09723731 0.1527573
0.009881063 0.1000387 0.1531973
0.00948235 0.1028442 0.1536219
0.009095492 0.1056535 0.1540317
0.00872015 0.1084665 0.1544273
0.008355991 0.1112828 0.1548092
0.00800269 0.1141023 0.1551779
0.007659929 0.1169247 0.155534
0.007327394 0.1197498 0.1558779
0.007004783 0.1225774 0.1562101
0.006691799 0.1254075 0.156531
0.006388155 0.1282397 0.1568411
0.00609357 0.1310741 0.1571407
0.005807773 0.1339104 0.1574303
0.0055305 0.1367485 0.1577102
0.005261496 0.1395883 0.1579808
0.005000514 0.1424297 0.1582424
0.004747316 0.1452726 0.1584953
0.004501669 0.1481169 0.1587399
0.004263353 0.1509625 0.1589764
0.004032152 0.1538093 0.1592052
0.00380786 0.1566573 0.1594264
0.003590277 0.1595063 0.1596405
0.003379213 0.1623563 0.1598475
0.003174482 0.1652073 0.1600478
0.002975909 0.1680592 0.1602416
0.002783322 0.1709119 0.1604291
0.00259656 0.1737653 0.1606104
0.002415465 0.1766196 0.1607859
0.002239887 0.1794745 0.1609556
0.002069682 0.18233 0.1611197
0.001904714 0.1851862 0.1612785
0.001744848 0.1880429 0.161432
0.00158996 0.1909002 0.1615805
0.001439929 0.193758 0.161724
0.001294637 0.1966163 0.1618628
0.001153976 0.199475 0.1619969
0.001017838 0.2023342 0.1621264
0.0008861228 0.2051937 0.1622515
0.000758734 0.2080537 0.1623724
0.0006355791 0.210914 0.162489
0.0005165702 0.2137746 0.1626016
0.0004016231 0.2166356 0.1627101
0.0002906578 0.2194969 0.1628148
0.0001835979 0.2223584 0.1629156
8.037057e-05 0.2252202 0.1630127
-1.90934e-05 0.2280823 0.1631062
-0.00011486 0.2309446 0.163196
-0.0002069919 0.2338072 0.1632824
-0.0002955487 0.2366699 0.1633653
-0.000380587 0.2395329 0.1634449
-0.0004621606 0.2423961 0.1635211
-0.0005403204 0.2452594 0.1635941
-0.0006151146 0.2481229 0.1636638
-0.0006865889 0.2509866 0.1637304
-0.0007547864 0.2538504 0.1637939
-0.0008197479 0.2567143 0.1638544
-0.0008815117 0.2595784 0.1639118
-0.000940114 0.2624426 0.1639663
-0.0009955887 0.265307 0.1640178
-0.001047968 0.2681714 0.1640664
-0.00109728 0.2710359 0.1641121
-0.001143555 0.2739006 0.164155
-0.001186817 0.2767653 0.1641951
-0.001227091 0.2796301 0.1642324
-0.001264399 0.282495 0.1642669
-0.00129876 0.2853599 0.1642987
-0.001330195 0.2882249 0.1643278
-0.001358718 0.29109 0.1643542
-0.001384347 0.2939551 0.1643778
-0.001407094 0.2968203 0.1643989
-0.001426972 0.2996855 0.1644172
-0.001443991 0.3025507 0.1644329
-0.001458159 0.305416 0.164446
-0.001469485 0.3082813 0.1644565
-0.001477975 0.3111466 0.1644643
-0.001483632 0.3140119 0.1644695
-0.00148646 0.3168772 0.1644722
-0.00148646 0.3197426 0.1644722
-0.001483632 0.3226079 0.1644695
-0.001477975 0.3254732 0.1644643
-0.001469485 0.3283385 0.1644565
-0.001458159 0.3312038 0.164446
-0.001443991 0.3340691 0.1644329
-0.001426972 0.3369343 0.1644172
-0.001407094 0.3397995 0.1643989
-0.001384347 0.3426647 0.1643778
-0.001358718 0.3455298 0.1643542
-0.001330194 0.3483948 0.1643278
-0.00129876 0.3512598 0.1642987
-0.001264399 0.3541248 0.1642669
-0.001227091 0.3569897 0.1642324
-0.001186817 0.3598545 0.1641951
-0.001143555 0.3627192 0.164155
-0.00109728 0.3655838 0.1641121
-0.001047967 0.3684484 0.1640664
-0.0009955885 0.3713128 0.1640178
-0.0009401138 0.3741771 0.1639663
-0.0008815115 0.3770414 0.1639118
-0.0008197477 0.3799054 0.1638544
-0.0007547862 0.3827694 0.1637939
-0.0006865887 0.3856332 0.1637304
-0.0006151144 0.3884969 0.1636638
-0.0005403201 0.3913604 0.1635941
-0.0004621603 0.3942237 0.1635211
-0.0003805867 0.3970869 0.1634449
-0.0002955484 0.3999498 0.1633653
-0.0002069916 0.4028126 0.1632824
-0.0001148597 0.4056751 0.163196
-1.909309e-05 0.4085375 0.1631062
8.037089e-05 0.4113995 0.1630127
0.0001835982 0.4142614 0.1629156
0.0002906581 0.4171229 0.1628148
0.0004016234 0.4199842 0.1627101
0.0005165705 0.4228451 0.1626016
0.0006355795 0.4257058 0.162489
0.0007587343 0.4285661 0.1623724
0.0008861231 0.431426 0.1622515
0.001017838 0.4342856 0.1621264
0.001153976 0.4371448 0.1619969
0.001294638 0.4400035 0.1618628
0.001439929 0.4428618 0.161724
0.001589961 0.4457196 0.1615805
0.001744849 0.4485768 0.161432
0.001904714 0.4514336 0.1612785
0.002069683 0.4542898 0.1611197
0.002239887 0.4571453 0.1609556
0.002415465 0.4600002 0.1607859
0.00259656 0.4628544 0.1606104
0.002783323 0.4657079 0.1604291
0.002975909 0.4685606 0.1602416
0.003174483 0.4714125 0.1600478
0.003379213 0.4742635 0.1598475
0.003590278 0.4771135 0.1596405
0.00380786 0.4799625 0.1594264
0.004032152 0.4828105 0.1592052
0.004263353 0.4856573 0.1589764
0.00450167 0.4885029 0.1587399
0.004747316 0.4913471 0.1584953
0.005000515 0.49419 0.1582424
0.005261497 0.4970314 0.1579808
0.005530501 0.4998713 0.1577102
0.005807774 0.5027094 0.1574303
0.006093571 0.5055457 0.1571407
0.006388156 0.50838 0.1568411
0.0066918 0.5112123 0.156531
0.007004783 0.5140423 0.1562101
0.007327394 0.51687 0.1558779
0.007659929 0.5196951 0.155534
0.008002691 0.5225175 0.1551779
0.008355992 0.525337 0.1548092
0.00872015 0.5281533 0.1544273
0.009095492 0.5309662 0.1540317
0.00948235 0.5337756 0.1536219
0.009881063 0.5365811 0.1531973
0.01029198 0.5393825 0.1527573
0.01071544 0.5421794 0.1523013
0.01115181 0.5449716 0.1518287
0.01160144 0.5477587 0.1513388
0.0120647 0.5505403 0.1508309
0.01254195 0.5533162 0.1503044
0.01303355 0.5560857 0.1497584
0.01353988 0.5588485 0.1491922
0.01406129 0.5616042 0.1486051
0.01459816 0.5643521 0.1479962
0.01515084 0.5670917 0.1473646
0.01571968 0.5698226 0.1467095
0.01630504 0.5725439 0.14603
0.01690725 0.5752551 0.1453251
0.01752664 0.5779554 0.1445939
0.01816353 0.5806441 0.1438353
0.01881821 0.5833204 0.1430484
0.01949095 0.5859833 0.1422321
0.02018203 0.588632 0.1413853
0.02089166 0.5912654 0.1405069
0.02162005 0.5938825 0.1395957
0.02236737 0.5964822 0.1386506
0.02313375 0.5990633 0.1376704
0.02391927 0.6016244 0.1366538
0.02472397 0.6041644 0.1355996
0.02554784 0.6066816 0.1345066
0.0263908 0.6091747 0.1333734
0.02725272 0.611642 0.1321987
0.02813337 0.6140818 0.1309814
0.02903247 0.6164923 0.1297199
0.02994962 0.6188716 0.1284131
0.03088435 0.6212177 0.1270596
0.03183607 0.6235286 0.1256581
0.03280408 0.625802 0.1242073
0.03378754 0.6280356 0.122706
0.03478551 0.630227 0.1211529
0.03579685 0.6323736 0.1195469
0.03682032 0.6344729 0.1178869
0.03785447 0.6365221 0.1161718
0.03889768 0.6385183 0.1144006
0.03994816 0.6404586 0.1125726
0.0410039 0.64234 0.1106868
0.04206267 0.6441593 0.1087429
0.04312203 0.6459134 0.1067401
0.04417931 0.6475991 0.1046784
0.04523159 0.649213 0.1025575
0.0462757 0.6507518 0.1003776
0.04730823 0.6522122 0.09813901
0.04832549 0.6535909 0.09584237
0.04932353 0.6548845 0.09348855
0.05029817 0.65609 0.09107874
0.05124493 0.657204 0.08861447
0.05215911 0.6582237 0.08609761
0.05303577 0.6591462 0.0835304
0.05386972 0.6599689 0.08091548
0.0546556 0.6606894 0.0782559
0.05538784 0.6613057 0.07555513
0.05606074 0.6618159 0.07281706
0.05666847 0.6622187 0.07004604
0.05720512 0.6625131 0.06724686
0.05766476 0.6626988 0.06442474
0.05804146 0.6627756 0.06158532
0.05832938 0.6627443 0.05873466
0.05852277 0.662606 0.05587922
0.05861612 0.6623626 0.05302577
0.05860414 0.6620164 0.05018145
0.05848186 0.6615708 0.04735364
0.05824472 0.6610294 0.04454992
0.05788858 0.6603969 0.04177807
0.05740983 0.6596784 0.03904591
0.05680543 0.6588798 0.03636132
0.05607295 0.6580076 0.03373208
0.05521066 0.657069 0.03116586
0.0542175 0.6560714 0.02867012
0.05309318 0.6550233 0.026252
0.05183817 0.6539329 0.02391828
0.05045368 0.6528094 0.02167529
0.04894171 0.6516618 0.01952886
0.04730501 0.6504996 0.01748423
0.04554703 0.6493321 0.01554602
0.04367195 0.6481689 0.01371818
0.04168456 0.6470192 0.01200395
0.03959025 0.6458922 0.01040586
0.03739493 0.6447968 0.008925693
0.03510499 0.6437416 0.007564496
0.03272718 0.6427348 0.006322589
0.03026857 0.6417839 0.005199591
0.02773646 0.6408961 0.00419444
0.0251383 0.6400779 0.00330544
0.02248164 0.6393353 0.002530297
0.019774 0.6386737 0.001866177
0.01702288 0.6380977 0.001309758
0.01423563 0.6376112 0.0008572843
0.01141944 0.6372178 0.0005046303
0.008581253 0.63692 0.0002473582
0.005727759 0.6367202 8.077693e-05
0.00286533 0.6366198 0
0 0.6366198 0

LINES 349 1047
2 0 1
2 1 2
2 2 3
2 3 4
2 4 5
2 5 6
2 6 7
2 7 8
2 8 9
2 9 10
2 10 11
2 11 12
2 12 13
2 13 14
2 14 15
2 15 16
2 16 17
2 17 18
2 18 19
2 19 20
2 20 21
2 21 22
2 22 23
2 23 24
2 24 25
2 25 26
2 26 27
2 27 28
2 28 29
2 29 30
2 30 31
2 31 32
2 32 33
2 33 34
2 34 35
2 35 36
2 36 37
2 37 38
2 38 39
2 39 40
2 40 41
2 41 42
2 42 43
2 43 44
2 44 45
2 45 46
2 46 47
2 47 48
2 48 49
2 49 50
2 50 51
2 51 52
2 52 53
2 53 54
2 54 55
2 55 56
2 56 57
2 57 58
2 58 59
2 59 60
2 60 61
2 61 62
2 62 63
2 63 64
2 64 65
2 65 66
2 66 67
2 67 68
2 68 69
2 69 70
2 70 71
2 71 72
2 72 73
2 73 74
2 74 75
2 75 76
2 76 77
2 77 78
2 78 79
2 79 80
2 80 81
2 81 82
2 82 83
2 83 84
2 84 85
2 85 86
2 86 87
2 87 88
2 88 89
2 89 90
2 90 91
2 91 92
2 92 93
2 93 94
2 94 95
2 95 96
2 96 97
2 97 98
2 98 99
2 99 100
2 100 101
2 101 102
2 102 103
2 103 104
2 104 105
2 105 106
2 106 107
2 107 108
2 108 109
2 109 110
2 110 111
2 111 112
2 112 113
2 113 114
2 114 115
2 115 116
2 116 117
2 117 118
2 118 119
2 119 120
2 120 121
2 121 122
2 122 123
2 123 124
2 124 125
2 125 126
2 126 127
2 127 128
2 128 129
2 129 130
2 130 131
2 131 132
2 132 133
2 133 134
2 134 135
2 135 136
2 136 137
2 137 138
2 138 139
2 139 140
2 140 141
2 141 142
2 142 143
2 143 144
2 144 145
2 145 146
2 146 147
2 147 148
2 148 149
2 149 150
2 150 151
2 151 152
2 152 153
2 153 154
2 154 155
2 155 156
2 156 157
2 157 158
2 158 159
2 159 160
2 160 161
2 161 162
2 162 163
2 163 164
2 164 165
2 165 166
2 166 167
2 167 168
2 168 169
2 169 170
2 170 171
2 171 172
2 172 173
2 173 174
2 174 175
2 175 176
2 176 177
2 177 178
2 178 179
2 179 180
2 180 181
2 181 182
2 182 183
2 183 184
2 184 185
2 185 186
2 186 187
2 187 188
2 188 189
2 189 190
2 190 191
2 191 192
2 192 193
2 193 194
2 194 195
2 195 196
2 196 197
2 197 198
2 198 199
2 199 200
2 200 201
2 201 202
2 202 203
2 203 204
2 204 205
2 205 206
2 206 207
2 207 208
2 208 209
2 209 210
2 210 211
2 211 212
2 212 213
2 213 214
2 214 215
2 215 216
2 216 217
2 217 218
2 218 219
2 219 220
2 220 221
2 221 222
2 222 223
2 223 224
2 224 225
2 225 226
2 226 227
2 227 228
2 228 229
2 229 230
2 230 231
2 231 232
2 232 233
2 233 234
2 234 235
2 235 236
2 236 237
2 237 238
2 238 239
2 239 240
2 240 241
2 241 242
2 242 243
2 243 244
2 244 245
2 245 246
2 246 247
2 247 248
2 248 249
2 249 250
2 250 251
2 251 252
2 252 253
2 253 254
2 254 255
2 255 256
2 256 257
2 257 258
2 258 259
2 259 260
2 260 261
2 261 262
2 262 263
2 263 264
2 264 265
2 265 266
2 266 267
2 267 268
2 268 269
2 269 270
2 270 271
2 271 272
2 272 273
2 273 274
2 274 275
2 275 276
2 276 277
2 277 278
2 278 279
2 279 280
2 280 281
2 281 282
2 282 283
2 283 284
2 284 285
2 285 286
2 286 287
2 287 288
2 288 289
2 289 290
2 290 291
2 291 292
2 292 293
2 293 294
2 294 295
2 295 296
2 296 297
2 297 298
2 298 299
2 299 300
2 300 301
2 301 302
2 302 303
2 303 304
2 304 305
2 305 306
2 306 307
2 307 308
2 308 309
2 309 310
2 310 311
2 311 312
2 312 313
2 313 314
2 314 315
2 315 316
2 316 317
2 317 318
2 318 319
2 319 320
2 320 321
2 321 322
2 322 323
2 323 324
2 324 325
2 325 326
2 326 327
2 327 328
2 328 329
2 329 330
2 330 331
2 331 332
2 332 333
2 333 334
2 334 335
2 335 336
2 336 337
2 337 338
2 338 339
2 339 340
2 340 341
2 341 342
2 342 343
2 343 344
2 344 345
2 345 346
2 346 347
2 347 348
2 348 349


POINT_DATA 350
SCALARS a FLOAT 1
LOOKUP_TABLE default
0.0005894628
0.0005894628
0.0005894628
0.0005894628
0.0005894628
0.0005894628
0.0005894628
0.0005894628
0.0005894628
0.0005894628
0.0005894628
0.0005894628
0.0005894628
0.0005894628
0.0005894628
0.0005894628
0.0005894628
0.0005894628
0.0005894628
0.0005894628
0.0005894628
0.0005894628
0.0005894628
0.0005894628
0.0005894628
0.0005894628
0.0005894628
0.0005894628
0.0005894628
0.0005894628
0.0005894628
0.0005894628
0.0005894628
0.0005894628
0.0005894628
0.0005894628
0.0005894628
0.0005894628
0.0005894628
0.0005894628
0.0005894628
0.0005894628
0.0005894628
0.0005894628
0.0005894628
0.0005894628
0.0005894628
0.0005894628
0.0005894628
0.0005894628
0.0005894628
0.0005894628
0.0005894628
0.0005894628
0.0005894628
0.0005894628
0.0005894628
0.0005894628
0.0005894628
0.0005894628
0.0005894628
0.0005894628
0.0005894628
0.0005894628
0.0005894628
0.0005894628
0.0005894628
0.0005894628
0.0005894628
0.0005894628
0.0005894628
0.0005894628
0.0005894628
0.0005894628
0.0005894628
0.0005894628
0.0005894628
0.0005894628
0.0005894628
0.0005894628
0.0005894628
0.0005894628
0.0005894628
0.0005894628
0.0005894628
0.0005894628
0.0005894628
0.0005894628
0.0005894628
0.0005894628
0.0005894628
0.0005894628
0.0005894628
0.0005894628
0.0005894628
0.0005894628
0.0005894628
0.0005894628
0.0005894628
0.0005894628
0.0005894628
0.0005894628
0.0005894628
0.0005894628
0.0005894628
0.0005894628
0.0005894628
0.0005894628
0.0005894628
0.0005894628
0.0005894628
0.0005894628
0.0005894628
0.0005894628
0.0005894628
0.0005894628
0.0005894628
0.0005894628
0.0005894628
0.0005894628
0.0005894628
0.0005894628
0.0005894628
0.0005894628
0.0005894628
0.0005894628
0.0005894628
0.0005894628
0.0005894628
0.0005894628
0.0005894628
0.0005894628
0.0005894628
0.0005894628
0.0005894628
0.0005894628
0.0005894628
0.0005894628
0.0005894628
0.0005894628
0.0005894628
0.0005894628
0.0005894628
0.0005894628
0.0005894628
0.0005894628
0.0005894628
0.0005894628
0.0005894628
0.0005894628
0.0005894628
0.0005894628
0.0005894628
0.0005894628
0.0005894628
0.0005894628
0.0005894628
0.0005894628
0.0005894628
0.0005894628
0.0005894628
0.0005894628
0.0005894628
0.0005894628
0.0005894628
0.0005894628
0.0005894628
0.0005894628
0.0005894628
0.0005894628
0.0005894628
0.0005894628
0.0005894628
0.0005894628
0.0005894628
0.0005894628
0.0005894628
0.0005894628
0.0005894628
0.0005894628
0.0005894628
0.0005894628
0.0005894628
0.0005894628
0.0005894628
0.0005894628
0.0005894628
0.0005894628
0.0005894628
0.0005894628
0.0005894628
0.0005894628
0.0005894628
0.0005894628
0.0005894628
0.0005894628
0.0005894628
0.0005894628
0.0005894628
0.0005894628
0.0005894628
0.0005894628
0.0005894628
0.0005894628
0.0005894628
0.0005894628
0.0005894628
0.0005894628
0.0005894628
0.0005894628
0.0005894628
0.0005894628
0.0005894628
0.0005894628
0.0005894628
0.0005894628
0.0005894628
0.0005894628
0.0005894628
0.0005894628
0.0005894628
0.0005894628
0.0005894628
0.0005894628
0.0005894628
0.0005894628
0.0005894628
0.0005894628
0.0005894628
0.0005894628
0.0005894628
0.0005894628
0.0005894628
0.0005894628
0.0005894628
0.0005894628
0.0005894628
0.0005894628
0.0005894628
0.0005894628
0.0005894628
0.0005894628
0.0005894628
0.0005894628
0.0005894628
0.0005894628
0.0005894628
0.0005894628
0.0005894628
0.0005894628
0.0005894628
0.0005894628
0.0005894628
0.0005894628
0.0005894628
0.0005894628
0.0005894628
0.0005894628
0.0005894628
0.0005894628
0.0005894628
0.0005894628
0.0005894628
0.0005894628
0.0005894628
0.0005894628
0.0005894628
0.0005894628
0.0005894628
0.0005894628
0.0005894628
0.0005894628
0.0005894628
0.0005894628
0.0005894628
0.0005894628
0.0005894628
0.0005894628
0.0005894628
0.0005894628
0.0005894628
0.0005894628
0.0005894628
0.0005894628
0.0005894628
0.0005894628
0.0005894628
0.0005894628
0.0005894628
0.0005894628
0.0005894628
0.0005894628
0.0005894628
0.0005894628
0.0005894628
0.0005894628
0.0005894628
0.0005894628
0.0005894628
0.0005894628
0.0005894628
0.0005894628
0.0005894628
0.0005894628
0.0005894628
0.0005894628
0.0005894628
0.0005894628
0.0005894628
0.0005894628
0.0005894628
0.0005894628
0.0005894628
0.0005894628
0.0005894628
0.0005894628
0.0005894628
0.0005894628
0.0005894628
0.0005894628
0.0005894628
0.0005894628
0.0005894628
0.0005894628
0.0005894628
0.0005894628
0.0005894628
0.0005894628
0.0005894628
0.0005894628
0.0005894628
0.0005894628
0.0005894628
0.0005894628
0.0005894628
0.0005894628
0.0005894628
0.0005894628
0.0005894628
0.0005894628
0.0005894628
0.0005894628
0.0005894628
0.0005894628
0.0005894628
0.0005894628
0.0005894628
0.0005894628
0.0005894628
0.0005894628


SCALARS b FLOAT 1
LOOKUP_TABLE default
0.04420971
0.04420971
0.04420971
0.04420971
0.04420971
0.04420971
0.04420971
0.04420971
0.04420971
0.04420971
0.04420971
0.04420971
0.04420971
0.04420971
0.04420971
0.04420971
0.04420971
0.04420971
0.04420971
0.04420971
0.04420971
0.04420971
0.04420971
0.04420971
0.04420971
0.04420971
0.04420971
0.04420971
0.04420971
0.04420971
0.04420971
0.04420971
0.04420971
0.04420971
0.04420971
0.04420971
0.04420971
0.04420971
0.04420971
0.04420971
0.04420971
0.04420971
0.04420971
0.04420971
0.04420971
0.04420971
0.04420971
0.04420971
0.04420971
0.04420971
0.04420971
0.04420971
0.04420971
0.04420971
0.04420971
0.04420971
0.04420971
0.04420971
0.04420971
0.04420971
0.04420971
0.04420971
0.04420971
0.04420971
0.04420971
0.04420971
0.04420971
0.04420971
0.04420971
0.04420971
0.04420971
0.04420971
0.04420971
0.04420971
0.04420971
0.04420971
0.04420971
0.04420971
0.04420971
0.04420971
0.04420971
0.04420971
0.04420971
0.04420971
0.04420971
0.04420971
0.04420971
0.04420971
0.04420971
0.04420971
0.04420971
0.04420971
0.04420971
0.04420971
0.04420971
0.04420971
0.04420971
0.04420971
0.04420971
0.04420971
0.04420971
0.04420971
0.04420971
0.04420971
0.04420971
0.04420971
0.04420971
0.04420971
0.04420971
0.04420971
0.04420971
0.04420971
0.04420971
0.04420971
0.04420971
0.04420971
0.04420971
0.04420971
0.04420971
0.04420971
0.04420971
0.04420971
0.04420971
0.04420971
0.04420971
0.04420971
0.04420971
0.04420971
0.04420971
0.04420971
0.04420971
0.04420971
0.04420971
0.04420971
0.04420971
0.04420971
0.04420971
0.04420971
0.04420971
0.04420971
0.04420971
0.04420971
0.04420971
0.04420971
0.04420971
0.04420971
0.04420971
0.04420971
0.04420971
0.04420971
0.04420971
0.04420971
0.04420971
0.04420971
0.04420971
0.04420971
0.04420971
0.04420971
0.04420971
0.04420971
0.04420971
0.04420971
0.04420971
0.04420971
0.04420971
0.04420971
0.04420971
0.04420971
0.04420971
0.04420971
0.04420971
0.04420971
0.04420971
0.04420971
0.04420971
0.04420971
0.04420971
0.04420971
0.04420971
0.04420971
0.04420971
0.04420971
0.04420971
0.04420971
0.04420971
0.04420971
0.04420971
0.04420971
0.04420971
0.04420971
0.04420971
0.04420971
0.04420971
0.04420971
0.04420971
0.04420971
0.04420971
0.04420971
0.04420971
0.04420971
0.04420971
0.04420971
0.04420971
0.04420971
0.04420971
0.04420971
0.04420971
0.04420971
0.04420971
0.04420971
0.04420971
0.04420971
0.04420971
0.04420971
0.04420971
0.04420971
0.04420971
0.04420971
0.04420971
0.04420971
0.04420971
0.04420971
0.04420971
0.04420971
0.04420971
0.04420971
0.04420971
0.04420971
0.04420971
0.04420971
0.04420971
0.04420971
0.04420971
0.04420971
0.04420971
0.04420971
0.04420971
0.04420971
0.04420971
0.04420971
0.04420971
0.04420971
0.04420971
0.04420971
0.04420971
0.04420971
0.04420971
0.04420971
0.04420971
0.04420971
0.04420971
0.04420971
0.04420971
0.04420971
0.04420971
0.04420971
0.04420971
0.04420971
0.04420971
0.04420971
0.04420971
0.04420971
0.04420971
0.04420971
0.04420971
0.04420971
0.04420971
0.04420971
0.04420971
0.04420971
0.04420971
0.04420971
0.04420971
0.04420971
0.04420971
0.04420971
0.04420971
0.04420971
0.04420971
0.04420971
0.04420971
0.04420971
0.04420971
0.04420971
0.04420971
0.04420971
0.04420971
0.04420971
0.04420971
0.04420971
0.04420971
0.04420971
0.04420971
0.04420971
0.04420971
0.04420971
0.04420971
0.04420971
0.04420971
0.04420971
0.04420971
0.04420971
0.04420971
0.04420971
0.04420971
0.04420971
0.04420971
0.04420971
0.04420971
0.04420971
0.04420971
0.04420971
0.04420971
0.04420971
0.04420971
0.04420971
0.04420971
0.04420971
0.04420971
0.04420971
0.04420971
0.04420971
0.04420971
0.04420971
0.04420971
0.04420971
0.04420971
0.04420971
0.04420971
0.04420971
0.04420971
0.04420971
0.04420971
0.04420971
0.04420971
0.04420971
0.04420971
0.04420971
0.04420971
0.04420971
0.04420971
0.04420971
0.04420971
0.04420971
0.04420971
0.04420971
0.04420971
0.04420971
0.04420971
0.04420971


VECTORS d1 FLOAT
0 -0.7897698 0.6134034
-0.04497176 -0.7675109 0.6394565
-0.09074492 -0.7423831 0.6638017
-0.1371375 -0.714345 0.6862248
-0.1839479 -0.6833776 0.7065113
-0.2309562 -0.6494859 0.7244497
-0.277925 -0.6127013 0.7398343
-0.3246014 -0.5730834 0.7524689
-0.3707195 -0.5307211 0.7621694
-0.4160027 -0.485734 0.768768
-0.4601671 -0.438272 0.7721165
-0.5029252 -0.3885159 0.7720891
-0.5439894 -0.3366761 0.7685862
-0.5830764 -0.2829912 0.7615365
-0.6199114 -0.227726 0.7508999
-0.6542324 -0.1711686 0.736669
-0.6857947 -0.1136268 0.7188703
-0.7143746 -0.05542459 0.6975651
-0.7397734 0.003102514 0.672849
-0.7618207 0.06161219 0.6448513
-0.7803773 0.1197602 0.6137335
-0.7953372 0.1772055 0.579687
-0.8066293 0.2336151 0.5429302
-0.8142181 0.2886692 0.5037053
-0.8181039 0.3420651 0.4622742
-0.818322 0.3935219 0.4189148
-0.8149414 0.4427836 0.3739161
-0.8080627 0.4896222 0.3275742
-0.7978158 0.5338398 0.2801874
-0.7843569 0.5752704 0.2320524
-0.7678647 0.6137803 0.1834599
-0.7485373 0.6492689 0.1346912
-0.7265883 0.6816678 0.08601451
-0.7022428 0.7109396 0.03768269
-0.6757339 0.7370769 -0.0100695
-0.6472989 0.7601 -0.05702702
-0.6171764 0.7800546 -0.1029959
-0.5856024 0.7970093 -0.147804
-0.5528085 0.8110527 -0.1913014
-0.5190188 0.822291 -0.2333602
-0.484448 0.8308447 -0.2738743
-0.4493 0.8368462 -0.3127586
-0.4137661 0.8404369 -0.3499476
-0.3780247 0.8417649 -0.3853948
-0.3422401 0.8409824 -0.4190708
-0.3065622 0.8382439 -0.450962
-0.2711267 0.8337042 -0.4810693
-0.2360551 0.8275165 -0.509406
-0.2014549 0.8198313 -0.5359968
-0.1674201 0.8107951 -0.5608759
-0.134032 0.8005494 -0.5840857
-0.1013598 0.7892296 -0.6056755
-0.06946113 0.7769651 -0.6256999
-0.03838325 0.763878 -0.6442183
-0.008163643 0.7500834 -0.6612928
0.02116909 0.7356892 -0.6769884
0.04959438 0.7207957 -0.6913711
0.0770989 0.7054959 -0.7045078
0.1036758 0.6898756 -0.7164656
0.1293238 0.6740136 -0.7273108
0.1540468 0.6579819 -0.7371088
0.177853 0.6418458 -0.7459237
0.2007543 0.6256647 -0.7538179
0.2227657 0.6094919 -0.7608515
0.2439051 0.5933752 -0.7670829
0.2641925 0.5773573 -0.7725678
0.2836495 0.5614759 -0.7773595
0.3022993 0.5457644 -0.781509
0.3201663 0.530252 -0.7850645
0.3372755 0.514964 -0.7880719
0.3536524 0.4999221 -0.7905744
0.369323 0.4851449 -0.7926127
0.3843132 0.4706482 -0.7942252
0.3986489 0.4564448 -0.7954478
0.4123559 0.4425454 -0.7963141
0.4254596 0.4289582 -0.7968557
0.4379849 0.4156898 -0.7971018
0.4499563 0.4027446 -0.7970797
0.4613977 0.3901259 -0.7968149
0.4723323 0.3778351 -0.7963308
0.4827827 0.3658728 -0.7956494
0.4927708 0.3542381 -0.7947907
0.5023177 0.3429294 -0.7937735
0.5114439 0.3319441 -0.7926148
0.5201689 0.321279 -0.7913306
0.5285118 0.31093 -0.7899353
0.5364906 0.3008926 -0.7884424
0.5441229 0.2911618 -0.7868641
0.5514252 0.2817322 -0.7852115
0.5584137 0.2725981 -0.783495
0.5651036 0.2637533 -0.7817238
0.5715095 0.2551915 -0.7799065
0.5776454 0.2469063 -0.7780508
0.5835247 0.238891 -0.7761637
0.5891599 0.2311387 -0.7742516
0.5945633 0.2236428 -0.7723202
0.5997463 0.2163961 -0.7703747
0.6047199 0.2093918 -0.7684198
0.6094945 0.2026229 -0.7664596
0.6140801 0.1960824 -0.7644981
0.618486 0.1897633 -0.7625385
0.6227213 0.1836587 -0.7605838
0.6267942 0.1777618 -0.7586368
0.630713 0.1720658 -0.7566997
0.6344851 0.1665639 -0.7547749
0.6381178 0.1612495 -0.752864
0.6416179 0.156116 -0.7509689
0.6449918 0.151157 -0.7490908
0.6482456 0.1463662 -0.7472313
0.651385 0.1417373 -0.7453912
0.6544154 0.1372642 -0.7435718
0.6573419 0.1329409 -0.7417738
0.6601693 0.1287617 -0.7399979
0.662902 0.1247209 -0.738245
0.6655443 0.1208128 -0.7365155
0.6681001 0.1170322 -0.73481
0.6705733 0.1133738 -0.7331288
0.6729671 0.1098324 -0.7314725
0.675285 0.1064032 -0.7298414
0.67753 0.1030815 -0.7282357
0.6797049 0.09986258 -0.7266558
0.6818124 0.09674204 -0.7251019
0.6838551 0.0937156 -0.7235742
0.6858352 0.09077912 -0.7220729
0.6877549 0.08792863 -0.7205982
0.6896163 0.08516031 -0.7191502
0.6914213 0.08247048 -0.7177292
0.6931717 0.07985562 -0.7163351
0.6948692 0.07731233 -0.7149683
0.6965152 0.07483737 -0.7136287
0.6981113 0.0724276 -0.7123166
0.6996588 0.07008003 -0.7110319
0.7011589 0.0677918 -0.7097749
0.7026129 0.06556015 -0.7085456
0.7040219 0.06338244 -0.7073442
0.7053869 0.06125614 -0.7061707
0.7067088 0.05917882 -0.7050252
0.7079887 0.05714817 -0.7039078
0.7092272 0.05516195 -0.7028186
0.7104252 0.05321802 -0.7017577
0.7115834 0.05131433 -0.7007252
0.7127026 0.04944892 -0.6997213
0.7137833 0.0476199 -0.6987459
0.7148261 0.04582545 -0.6977992
0.7158317 0.04406384 -0.6968812
0.7168004 0.0423334 -0.6959921
0.7177329 0.04063251 -0.695132
0.7186295 0.03895965 -0.6943009
0.7194907 0.03731331 -0.693499
0.7203168 0.03569209 -0.6927263
0.7211082 0.03409459 -0.691983
0.7218653 0.0325195 -0.6912691
0.7225883 0.03096555 -0.6905847
0.7232776 0.02943149 -0.68993
0.7239333 0.02791615 -0.6893049
0.7245558 0.02641838 -0.6887097
0.7251452 0.02493707 -0.6881443
0.7257017 0.02347115 -0.687609
0.7262256 0.02201958 -0.6871037
0.7267171 0.02058136 -0.6866285
0.7271761 0.0191555 -0.6861836
0.727603 0.01774107 -0.685769
0.7279978 0.01633713 -0.6853848
0.7283606 0.0149428 -0.685031
0.7286916 0.01355719 -0.6847078
0.7289908 0.01217944 -0.6844152
0.7292583 0.01080873 -0.6841532
0.7294941 0.00944422 -0.6839219
0.7296984 0.008085111 -0.6837213
0.7298712 0.006730607 -0.6835515
0.7300125 0.005379924 -0.6834126
0.7301224 0.004032287 -0.6833045
0.7302009 0.002686927 -0.6832272
0.730248 0.001343083 -0.6831809
0.7302637 -3.244219e-09 -0.6831654
0.730248 -0.00134309 -0.6831809
0.7302009 -0.002686934 -0.6832272
0.7301224 -0.004032293 -0.6833045
0.7300125 -0.00537993 -0.6834126
0.7298712 -0.006730614 -0.6835515
0.7296984 -0.008085117 -0.6837213
0.7294941 -0.009444226 -0.6839219
0.7292583 -0.01080873 -0.6841532
0.7289908 -0.01217945 -0.6844152
0.7286916 -0.01355719 -0.6847078
0.7283606 -0.0149428 -0.685031
0.7279978 -0.01633714 -0.6853848
0.727603 -0.01774107 -0.685769
0.7271761 -0.01915551 -0.6861836
0.7267171 -0.02058136 -0.6866285
0.7262256 -0.02201959 -0.6871037
0.7257017 -0.02347116 -0.687609
0.7251452 -0.02493708 -0.6881443
0.7245558 -0.02641839 -0.6887097
0.7239333 -0.02791616 -0.6893049
0.7232776 -0.0294315 -0.68993
0.7225883 -0.03096555 -0.6905847
0.7218653 -0.03251951 -0.6912691
0.7211082 -0.0340946 -0.691983
0.7203168 -0.03569209 -0.6927263
0.7194907 -0.03731332 -0.693499
0.7186295 -0.03895965 -0.6943009
0.7177329 -0.04063252 -0.695132
0.7168004 -0.0423334 -0.6959921
0.7158317 -0.04406385 -0.6968812
0.7148261 -0.04582546 -0.6977991
0.7137833 -0.0476199 -0.6987459
0.7127026 -0.04944893 -0.6997213
0.7115834 -0.05131434 -0.7007252
0.7104252 -0.05321802 -0.7017577
0.7092272 -0.05516195 -0.7028186
0.7079887 -0.05714817 -0.7039078
0.7067088 -0.05917883 -0.7050252
0.7053869 -0.06125614 -0.7061707
0.7040219 -0.06338244 -0.7073442
0.7026129 -0.06556015 -0.7085456
0.7011589 -0.0677918 -0.7097749