# vtk DataFile Version 2.0
Written badly by Kevin Korner
ASCII
DATASET POLYDATA
POINTS 350 FLOAT
0 0 0
0.00286533 0 0
0.005727835 -9.769318e-05 8.144458e-05
0.008581643 -0.0002919678 0.0002492215
0.01142056 -0.0005811789 0.0005080701
0.01423811 -0.0009631206 0.0008625291
0.01702756 -0.001435004 0.001316881
0.01978195 -0.001993441 0.001875097
0.02249416 -0.002634433 0.002540781
0.02515697 -0.003353367 0.003317109
0.0277631 -0.004145024 0.004206783
0.03030525 -0.005003594 0.005211972
0.03277625 -0.005922692 0.006334271
0.03516903 -0.0068954 0.007574656
0.03747676 -0.007914303 0.008933449
0.03969291 -0.008971539 0.01041029
0.04181128 -0.01005886 0.01200413
0.04382614 -0.01116771 0.0137132
0.04573223 -0.01228927 0.01553502
0.04752485 -0.01341456 0.01746644
0.0491999 -0.01453452 0.0195036
0.05075392 -0.01564009 0.02164201
0.05218417 -0.01672228 0.0238766
0.05348857 -0.01777229 0.02620171
0.0546658 -0.01878155 0.0286112
0.05571524 -0.01974183 0.03109849
0.056637 -0.02064529 0.03365667
0.05743189 -0.02148454 0.03627848
0.05810141 -0.02225273 0.03895649
0.05864768 -0.02294354 0.04168311
0.05907345 -0.02355128 0.04445069
0.05938199 -0.02407086 0.04725158
0.0595771 -0.02449784 0.05007819
0.05966301 -0.02482843 0.05292309
0.05964432 -0.02505949 0.05577902
0.05952598 -0.02518853 0.058639
0.05931318 -0.02521366 0.0614963
0.05901131 -0.02513361 0.06434456
0.05862592 -0.02494766 0.06717776
0.05816264 -0.02465563 0.06999027
0.05762713 -0.02425786 0.07277687
0.05702504 -0.02375513 0.07553274
0.05636198 -0.02314862 0.07825352
0.05564345 -0.02243991 0.08093523
0.05487483 -0.02163091 0.08357433
0.05406135 -0.0207238 0.08616769
0.05320804 -0.01972101 0.08871257
0.05231977 -0.0186252 0.09120661
0.05140114 -0.01743918 0.09364784
0.05045656 -0.01616589 0.0960346
0.04949019 -0.0148084 0.09836558
0.04850596 -0.01336984 0.1006398
0.04750752 -0.01185336 0.1028564
0.04649833 -0.01026218 0.1050151
0.04548156 -0.008599487 0.1071155
0.04446017 -0.006868453 0.1091576
0.04343688 -0.005072219 0.1111417
0.0424142 -0.003213874 0.1130681
0.04139439 -0.001296443 0.1149372
0.04037955 0.0006771214 0.1167497
0.03937155 0.002703948 0.1185064
0.03837208 0.004781256 0.1202081
0.03738266 0.006906355 0.1218559
0.03640464 0.009076654 0.1234507
0.03543922 0.01128966 0.1249937
0.03448744 0.01354299 0.1264859
0.03355023 0.01583434 0.1279286
0.03262836 0.01816154 0.129323
0.03172251 0.0205225 0.1306704
0.03083325 0.02291524 0.131972
0.02996104 0.02533785 0.1332291
0.02910625 0.02778857 0.134443
0.02826918 0.03026567 0.1356149
0.02745004 0.03276756 0.1367461
0.02664898 0.03529272 0.1378379
0.02586608 0.03783969 0.1388915
0.02510137 0.04040713 0.1399081
0.02435483 0.04299376 0.140889
0.02362639 0.04559835 0.1418354
0.02291594 0.04821979 0.1427483
0.02222334 0.05085699 0.143629
0.0215484 0.05350895 0.1444785
0.02089093 0.05617473 0.145298
0.02025068 0.05885343 0.1460884
0.01962742 0.06154422 0.1468508
0.01902085 0.06424631 0.1475862
0.01843071 0.06695898 0.1482957
0.01785669 0.06968153 0.14898
0.01729848 0.07241333 0.1496402
0.01675575 0.07515375 0.150277
0.01622818 0.07790225 0.1508915
0.01571543 0.08065829 0.1514844
0.01521717 0.08342137 0.1520564
0.01473306 0.08619103 0.1526084
0.01426275 0.08896683 0.1531412
0.01380591 0.09174839 0.1536553
0.01336219 0.0945353 0.1541517
0.01293125 0.09732722 0.1546308
0.01251276 0.1001238 0.1550934
0.01210638 0.1029248 0.15554
0.01171179 0.1057299 0.1559714
0.01132866 0.1085387 0.1563879
0.01095667 0.1113512 0.1567903
0.0105955 0.1141669 0.1571791
0.01024486 0.1169858 0.1575547
0.009904437 0.1198076 0.1579176
0.009573938 0.1226321 0.1582684
0.009253077 0.1254592 0.1586074
0.008941573 0.1282886 0.1589352
0.008639154 0.1311203 0.1592521
0.008345554 0.133954 0.1595585
0.008060518 0.1367897 0.1598548
0.007783793 0.1396272 0.1601414
0.00751514 0.1424664 0.1604187
0.007254323 0.1453072 0.1606869
0.007001116 0.1481495 0.1609464
0.0067553 0.1509932 0.1611975
0.006516664 0.1538382 0.1614405
0.006285006 0.1566844 0.1616756
0.006060127 0.1595318 0.1619032
0.005841841 0.1623803 0.1621235
0.005629965 0.1652299 0.1623367
0.005424325 0.1680803 0.1625431
0.005224753 0.1709317 0.1627429
0.005031088 0.1737839 0.1629362
0.004843175 0.176637 0.1631234
0.004660868 0.1794908 0.1633046
0.004484023 0.1823452 0.1634799
0.004312505 0.1852004 0.1636496
0.004146184 0.1880562 0.1638137
0.003984935 0.1909126 0.1639726
0.00382864 0.1937695 0.1641262
0.003677184 0.196627 0.1642749
0.003530458 0.1994849 0.1644186
0.00338836 0.2023433 0.1645575
0.003250789 0.2052022 0.1646918
0.003117651 0.2080615 0.1648215
0.002988855 0.2109212 0.1649468
0.002864317 0.2137813 0.1650678
0.002743953 0.2166417 0.1651845
0.002627686 0.2195024 0.1652971
0.002515442 0.2223635 0.1654057
0.002407149 0.2252249 0.1655102
0.002302742 0.2280865 0.165611
0.002202156 0.2309485 0.1657079
0.00210533 0.2338106 0.1658011
0.002012207 0.236673 0.1658906
0.001922734 0.2395357 0.1659765
0.001836858 0.2423986 0.1660589
0.00175453 0.2452616 0.1661378
0.001675706 0.2481249 0.1662132
0.001600341 0.2509883 0.1662853
0.001528394 0.2538519 0.1663541
0.001459828 0.2567157 0.1664195
0.001394605 0.2595796 0.1664818
0.001332692 0.2624436 0.1665408
0.001274057 0.2653078 0.1665967
0.001218671 0.2681721 0.1666494
0.001166505 0.2710365 0.1666991
0.001117534 0.2739011 0.1667456
0.001071734 0.2767657 0.1667892
0.001029082 0.2796304 0.1668297
0.0009895593 0.2824952 0.1668672
0.0009531457 0.2853601 0.1669018
0.0009198248 0.2882251 0.1669334
0.0008895809 0.2910901 0.1669621
0.0008624002 0.2939552 0.1669878
0.0008382702 0.2968203 0.1670107
0.0008171801 0.2996855 0.1670307
0.0007991203 0.3025507 0.1670478
0.0007840827 0.305416 0.1670621
0.0007720606 0.3082813 0.1670734
0.0007630487 0.3111466 0.167082
0.0007570429 0.3140119 0.1670877
0.0007540407 0.3168772 0.1670905
0.0007540408 0.3197426 0.1670905
0.000757043 0.3226079 0.1670877
0.0007630487 0.3254732 0.167082
0.0007720606 0.3283385 0.1670734
0.0007840827 0.3312038 0.1670621
0.0007991203 0.334069 0.1670478
0.0008171802 0.3369343 0.1670307
0.0008382703 0.3397994 0.1670107
0.0008624003 0.3426646 0.1669878
0.000889581 0.3455297 0.1669621
0.0009198249 0.3483947 0.1669334
0.0009531459 0.3512596 0.1669018
0.0009895594 0.3541245 0.1668672
0.001029083 0.3569893 0.1668297
0.001071734 0.3598541 0.1667892
0.001117534 0.3627187 0.1667456
0.001166505 0.3655832 0.1666991
0.001218671 0.3684477 0.1666494
0.001274058 0.371312 0.1665967
0.001332692 0.3741762 0.1665408
0.001394605 0.3770402 0.1664818
0.001459828 0.3799041 0.1664195
0.001528394 0.3827679 0.1663541
0.001600341 0.3856315 0.1662853
0.001675706 0.3884949 0.1662132
0.001754531 0.3913582 0.1661378
0.001836858 0.3942212 0.1660589
0.001922734 0.3970841 0.1659765
0.002012208 0.3999467 0.1658906
0.00210533 0.4028091 0.1658011
0.002202156 0.4056713 0.1657079
0.002302742 0.4085332 0.165611
0.00240715 0.4113949 0.1655102
0.002515442 0.4142563 0.1654057
0.002627686 0.4171173 0.1652971
0.002743953 0.4199781 0.1651845
0.002864317 0.4228385 0.1650678
0.002988856 0.4256986 0.1649468
0.003117651 0.4285583 0.1648215
0.003250789 0.4314176 0.1646918
0.00338836 0.4342764 0.1645575
0.003530459 0.4371349 0.1644186
0.003677184 0.4399928 0.1642749
0.00382864 0.4428503 0.1641262
0.003984936 0.4457072 0.1639726
0.004146185 0.4485636 0.1638137
0.004312506 0.4514194 0.1636496
0.004484023 0.4542745 0.1634799
0.004660868 0.457129 0.1633046
0.004843176 0.4599828 0.1631234
0.005031088 0.4628358 0.1629362
0.005224753 0.4656881 0.1627429
0.005424325 0.4685394 0.1625431
0.005629965 0.4713899 0.1623367
0.005841842 0.4742394 0.1621235
0.006060128 0.4770879 0.1619032
0.006285006 0.4799353 0.1616756
0.006516665 0.4827816 0.1614405
0.0067553 0.4856266 0.1611975
0.007001116 0.4884703 0.1609464
0.007254323 0.4913126 0.1606869
0.00751514 0.4941534 0.1604187
0.007783794 0.4969926 0.1601414
0.008060518 0.4998301 0.1598548
0.008345555 0.5026658 0.1595585
0.008639154 0.5054995 0.1592521
0.008941573 0.5083312 0.1589352
0.009253077 0.5111606 0.1586074
0.009573938 0.5139876 0.1582684
0.009904437 0.5168122 0.1579176
0.01024486 0.5196339 0.1575547
0.0105955 0.5224528 0.1571791
0.01095667 0.5252686 0.1567903
0.01132866 0.528081 0.1563879
0.01171179 0.5308899 0.1559714
0.01210638 0.533695 0.15554
0.01251276 0.5364959 0.1550934
0.01293125 0.5392925 0.1546308
0.01336219 0.5420845 0.1541517
0.01380591 0.5448714 0.1536553
0.01426275 0.5476529 0.1531412
0.01473306 0.5504287 0.1526084
0.01521717 0.5531984 0.1520564
0.01571543 0.5559615 0.1514844
0.01622818 0.5587175 0.1508915
0.01675575 0.561466 0.150277
0.01729848 0.5642064 0.1496402
0.01785669 0.5669382 0.14898
0.01843071 0.5696608 0.1482957
0.01902085 0.5723735 0.1475862
0.01962742 0.5750756 0.1468508
0.02025068 0.5777663 0.1460884
0.02089093 0.580445 0.145298
0.0215484 0.5831108 0.1444785
0.02222334 0.5857628 0.143629
0.02291594 0.5884 0.1427483
0.02362639 0.5910214 0.1418354
0.02435483 0.593626 0.140889
0.02510137 0.5962126 0.1399081
0.02586608 0.5987801 0.1388915
0.02664898 0.6013271 0.1378379
0.02745004 0.6038522 0.1367461
0.02826918 0.6063541 0.1356149
0.02910625 0.6088312 0.134443
0.02996104 0.6112819 0.1332291
0.03083325 0.6137045 0.131972
0.03172251 0.6160973 0.1306704
0.03262836 0.6184582 0.129323
0.03355023 0.6207854 0.1279286
0.03448744 0.6230768 0.1264859
0.03543922 0.6253301 0.1249937
0.03640464 0.6275431 0.1234507
0.03738266 0.6297134 0.1218559
0.03837208 0.6318385 0.1202081
0.03937155 0.6339158 0.1185064
0.04037955 0.6359427 0.1167497
0.04139439 0.6379162 0.1149372
0.0424142 0.6398336 0.1130681
0.04343688 0.641692 0.1111417
0.04446017 0.6434882 0.1091576
0.04548156 0.6452193 0.1071155
0.04649833 0.646882 0.1050151
0.04750752 0.6484731 0.1028564
0.04850596 0.6499896 0.1006398
0.04949019 0.6514282 0.09836558
0.05045656 0.6527857 0.0960346
0.05140114 0.6540589 0.09364784
0.05231977 0.655245 0.09120661
0.05320804 0.6563408 0.08871257
0.05406135 0.6573436 0.08616769
0.05487483 0.6582507 0.08357433
0.05564345 0.6590597 0.08093523
0.05636198 0.6597684 0.07825352
0.05702504 0.6603749 0.07553274
0.05762713 0.6608776 0.07277687
0.05816264 0.6612754 0.06999027
0.05862592 0.6615674 0.06717776
0.05901131 0.6617534 0.06434456
0.05931318 0.6618334 0.0614963
0.05952598 0.6618083 0.058639
0.05964432 0.6616793 0.05577902
0.05966301 0.6614482 0.05292309
0.0595771 0.6611176 0.05007819
0.05938199 0.6606906 0.04725158
0.05907345 0.6601711 0.04445069
0.05864768 0.6595633 0.04168311
0.05810141 0.6588725 0.03895649
0.05743189 0.6581043 0.03627848
0.056637 0.6572651 0.03365667
0.05571524 0.6563616 0.03109849
0.0546658 0.6554013 0.0286112
0.05348857 0.6543921 0.02620171
0.05218417 0.6533421 0.0238766
0.05075392 0.6522599 0.02164201
0.0491999 0.6511543 0.0195036
0.04752485 0.6500343 0.01746644
0.04573223 0.648909 0.01553502
0.04382614 0.6477875 0.0137132
0.04181128 0.6466786 0.01200413
0.03969291 0.6455913 0.01041029
0.03747676 0.6445341 0.008933449
0.03516903 0.6435152 0.007574656
0.03277625 0.6425425 0.006334271
0.03030525 0.6416234 0.005211972
0.02776309 0.6407648 0.004206783
0.02515697 0.6399731 0.003317109
0.02249416 0.6392542 0.002540781
0.01978195 0.6386132 0.001875097
0.01702756 0.6380548 0.001316881
0.01423811 0.6375829 0.0008625291
0.01142056 0.637201 0.0005080702
0.008581643 0.6369117 0.0002492215
0.005727835 0.6367175 8.144458e-05
0.00286533 0.6366198 0
0 0.6366198 0

LINES 349 1047
2 0 1
2 1 2
2 2 3
2 3 4
2 4 5
2 5 6
2 6 7
2 7 8
2 8 9
2 9 10
2 10 11
2 11 12
2 12 13
2 13 14
2 14 15
2 15 16
2 16 17
2 17 18
2 18 19
2 19 20
2 20 21
2 21 22
2 22 23
2 23 24
2 24 25
2 25 26
2 26 27
2 27 28
2 28 29
2 29 30
2 30 31
2 31 32
2 32 33
2 33 34
2 34 35
2 35 36
2 36 37
2 37 38
2 38 39
2 39 40
2 40 41
2 41 42
2 42 43
2 43 44
2 44 45
2 45 46
2 46 47
2 47 48
2 48 49
2 49 50
2 50 51
2 51 52
2 52 53
2 53 54
2 54 55
2 55 56
2 56 57
2 57 58
2 58 59
2 59 60
2 60 61
2 61 62
2 62 63
2 63 64
2 64 65
2 65 66
2 66 67
2 67 68
2 68 69
2 69 70
2 70 71
2 71 72
2 72 73
2 73 74
2 74 75
2 75 76
2 76 77
2 77 78
2 78 79
2 79 80
2 80 81
2 81 82
2 82 83
2 83 84
2 84 85
2 85 86
2 86 87
2 87 88
2 88 89
2 89 90
2 90 91
2 91 92
2 92 93
2 93 94
2 94 95
2 95 96
2 96 97
2 97 98
2 98 99
2 99 100
2 100 101
2 101 102
2 102 103
2 103 104
2 104 105
2 105 106
2 106 107
2 107 108
2 108 109
2 109 110
2 110 111
2 111 112
2 112 113
2 113 114
2 114 115
2 115 116
2 116 117
2 117 118
2 118 119
2 119 120
2 120 121
2 121 122
2 122 123
2 123 124
2 124 125
2 125 126
2 126 127
2 127 128
2 128 129
2 129 130
2 130 131
2 131 132
2 132 133
2 133 134
2 134 135
2 135 136
2 136 137
2 137 138
2 138 139
2 139 140
2 140 141
2 141 142
2 142 143
2 143 144
2 144 145
2 145 146
2 146 147
2 147 148
2 148 149
2 149 150
2 150 151
2 151 152
2 152 153
2 153 154
2 154 155
2 155 156
2 156 157
2 157 158
2 158 159
2 159 160
2 160 161
2 161 162
2 162 163
2 163 164
2 164 165
2 165 166
2 166 167
2 167 168
2 168 169
2 169 170
2 170 171
2 171 172
2 172 173
2 173 174
2 174 175
2 175 176
2 176 177
2 177 178
2 178 179
2 179 180
2 180 181
2 181 182
2 182 183
2 183 184
2 184 185
2 185 186
2 186 187
2 187 188
2 188 189
2 189 190
2 190 191
2 191 192
2 192 193
2 193 194
2 194 195
2 195 196
2 196 197
2 197 198
2 198 199
2 199 200
2 200 201
2 201 202
2 202 203
2 203 204
2 204 205
2 205 206
2 206 207
2 207 208
2 208 209
2 209 210
2 210 211
2 211 212
2 212 213
2 213 214
2 214 215
2 215 216
2 216 217
2 217 218
2 218 219
2 219 220
2 220 221
2 221 222
2 222 223
2 223 224
2 224 225
2 225 226
2 226 227
2 227 228
2 228 229
2 229 230
2 230 231
2 231 232
2 232 233
2 233 234
2 234 235
2 235 236
2 236 237
2 237 238
2 238 239
2 239 240
2 240 241
2 241 242
2 242 243
2 243 244
2 244 245
2 245 246
2 246 247
2 247 248
2 248 249
2 249 250
2 250 251
2 251 252
2 252 253
2 253 254
2 254 255
2 255 256
2 256 257
2 257 258
2 258 259
2 259 260
2 260 261
2 261 262
2 262 263
2 263 264
2 264 265
2 265 266
2 266 267
2 267 268
2 268 269
2 269 270
2 270 271
2 271 272
2 272 273
2 273 274
2 274 275
2 275 276
2 276 277
2 277 278
2 278 279
2 279 280
2 280 281
2 281 282
2 282 283
2 283 284
2 284 285
2 285 286
2 286 287
2 287 288
2 288 289
2 289 290
2 290 291
2 291 292
2 292 293
2 293 294
2 294 295
2 295 296
2 296 297
2 297 298
2 298 299
2 299 300
2 300 301
2 301 302
2 302 303
2 303 304
2 304 305
2 305 306
2 306 307
2 307 308
2 308 309
2 309 310
2 310 311
2 311 312
2 312 313
2 313 314
2 314 315
2 315 316
2 316 317
2 317 318
2 318 319
2 319 320
2 320 321
2 321 322
2 322 323
2 323 324
2 324 325
2 325 326
2 326 327
2 327 328
2 328 329
2 329 330
2 330 331
2 331 332
2 332 333
2 333 334
2 334 335
2 335 336
2 336 337
2 337 338
2 338 339
2 339 340
2 340 341
2 341 342
2 342 343
2 343 344
2 344 345
2 345 346
2 346 347
2 347 348
2 348 349


POINT_DATA 350
SCALARS a FLOAT 1
LOOKUP_TABLE default
0.0005894628
0.0005894628
0.0005894628
0.0005894628
0.0005894628
0.0005894628
0.0005894628
0.0005894628
0.0005894628
0.0005894628
0.0005894628
0.0005894628
0.0005894628
0.0005894628
0.0005894628
0.0005894628
0.0005894628
0.0005894628
0.0005894628
0.0005894628
0.0005894628
0.0005894628
0.0005894628
0.0005894628
0.0005894628
0.0005894628
0.0005894628
0.0005894628
0.0005894628
0.0005894628
0.0005894628
0.0005894628
0.0005894628
0.0005894628
0.0005894628
0.0005894628
0.0005894628
0.0005894628
0.0005894628
0.0005894628
0.0005894628
0.0005894628
0.0005894628
0.0005894628
0.0005894628
0.0005894628
0.0005894628
0.0005894628
0.0005894628
0.0005894628
0.0005894628
0.0005894628
0.0005894628
0.0005894628
0.0005894628
0.0005894628
0.0005894628
0.0005894628
0.0005894628
0.0005894628
0.0005894628
0.0005894628
0.0005894628
0.0005894628
0.0005894628
0.0005894628
0.0005894628
0.0005894628
0.0005894628
0.0005894628
0.0005894628
0.0005894628
0.0005894628
0.0005894628
0.0005894628
0.0005894628
0.0005894628
0.0005894628
0.0005894628
0.0005894628
0.0005894628
0.0005894628
0.0005894628
0.0005894628
0.0005894628
0.0005894628
0.0005894628
0.0005894628
0.0005894628
0.0005894628
0.0005894628
0.0005894628
0.0005894628
0.0005894628
0.0005894628
0.0005894628
0.0005894628
0.0005894628
0.0005894628
0.0005894628
0.0005894628
0.0005894628
0.0005894628
0.0005894628
0.0005894628
0.0005894628
0.0005894628
0.0005894628
0.0005894628
0.0005894628
0.0005894628
0.0005894628
0.0005894628
0.0005894628
0.0005894628
0.0005894628
0.0005894628
0.0005894628
0.0005894628
0.0005894628
0.0005894628
0.0005894628
0.0005894628
0.0005894628
0.0005894628
0.0005894628
0.0005894628
0.0005894628
0.0005894628
0.0005894628
0.0005894628
0.0005894628
0.0005894628
0.0005894628
0.0005894628
0.0005894628
0.0005894628
0.0005894628
0.0005894628
0.0005894628
0.0005894628
0.0005894628
0.0005894628
0.0005894628
0.0005894628
0.0005894628
0.0005894628
0.0005894628
0.0005894628
0.0005894628
0.0005894628
0.0005894628
0.0005894628
0.0005894628
0.0005894628
0.0005894628
0.0005894628
0.0005894628
0.0005894628
0.0005894628
0.0005894628
0.0005894628
0.0005894628
0.0005894628
0.0005894628
0.0005894628
0.0005894628
0.0005894628
0.0005894628
0.0005894628
0.0005894628
0.0005894628
0.0005894628
0.0005894628
0.0005894628
0.0005894628
0.0005894628
0.0005894628
0.0005894628
0.0005894628
0.0005894628
0.0005894628
0.0005894628
0.0005894628
0.0005894628
0.0005894628
0.0005894628
0.0005894628
0.0005894628
0.0005894628
0.0005894628
0.0005894628
0.0005894628
0.0005894628
0.0005894628
0.0005894628
0.0005894628
0.0005894628
0.0005894628
0.0005894628
0.0005894628
0.0005894628
0.0005894628
0.0005894628
0.0005894628
0.0005894628
0.0005894628
0.0005894628
0.0005894628
0.0005894628
0.0005894628
0.0005894628
0.0005894628
0.0005894628
0.0005894628
0.0005894628
0.0005894628
0.0005894628
0.0005894628
0.0005894628
0.0005894628
0.0005894628
0.0005894628
0.0005894628
0.0005894628
0.0005894628
0.0005894628
0.0005894628
0.0005894628
0.0005894628
0.0005894628
0.0005894628
0.0005894628
0.0005894628
0.0005894628
0.0005894628
0.0005894628
0.0005894628
0.0005894628
0.0005894628
0.0005894628
0.0005894628
0.0005894628
0.0005894628
0.0005894628
0.0005894628
0.0005894628
0.0005894628
0.0005894628
0.0005894628
0.0005894628
0.0005894628
0.0005894628
0.0005894628
0.0005894628
0.0005894628
0.0005894628
0.0005894628
0.0005894628
0.0005894628
0.0005894628
0.0005894628
0.0005894628
0.0005894628
0.0005894628
0.0005894628
0.0005894628
0.0005894628
0.0005894628
0.0005894628
0.0005894628
0.0005894628
0.0005894628
0.0005894628
0.0005894628
0.0005894628
0.0005894628
0.0005894628
0.0005894628
0.0005894628
0.0005894628
0.0005894628
0.0005894628
0.0005894628
0.0005894628
0.0005894628
0.0005894628
0.0005894628
0.0005894628
0.0005894628
0.0005894628
0.0005894628
0.0005894628
0.0005894628
0.0005894628
0.0005894628
0.0005894628
0.0005894628
0.0005894628
0.0005894628
0.0005894628
0.0005894628
0.0005894628
0.0005894628
0.0005894628
0.0005894628
0.0005894628
0.0005894628
0.0005894628
0.0005894628
0.0005894628
0.0005894628
0.0005894628
0.0005894628
0.0005894628
0.0005894628
0.0005894628
0.0005894628
0.0005894628
0.0005894628
0.0005894628
0.0005894628
0.0005894628
0.0005894628
0.0005894628
0.0005894628
0.0005894628
0.0005894628
0.0005894628
0.0005894628
0.0005894628
0.0005894628
0.0005894628
0.0005894628
0.0005894628
0.0005894628
0.0005894628
0.0005894628
0.0005894628
0.0005894628
0.0005894628
0.0005894628
0.0005894628
0.0005894628
0.0005894628
0.0005894628
0.0005894628
0.0005894628
0.0005894628
0.0005894628


SCALARS b FLOAT 1
LOOKUP_TABLE default
0.04420971
0.04420971
0.04420971
0.04420971
0.04420971
0.04420971
0.04420971
0.04420971
0.04420971
0.04420971
0.04420971
0.04420971
0.04420971
0.04420971
0.04420971
0.04420971
0.04420971
0.04420971
0.04420971
0.04420971
0.04420971
0.04420971
0.04420971
0.04420971
0.04420971
0.04420971
0.04420971
0.04420971
0.04420971
0.04420971
0.04420971
0.04420971
0.04420971
0.04420971
0.04420971
0.04420971
0.04420971
0.04420971
0.04420971
0.04420971
0.04420971
0.04420971
0.04420971
0.04420971
0.04420971
0.04420971
0.04420971
0.04420971
0.04420971
0.04420971
0.04420971
0.04420971
0.04420971
0.04420971
0.04420971
0.04420971
0.04420971
0.04420971
0.04420971
0.04420971
0.04420971
0.04420971
0.04420971
0.04420971
0.04420971
0.04420971
0.04420971
0.04420971
0.04420971
0.04420971
0.04420971
0.04420971
0.04420971
0.04420971
0.04420971
0.04420971
0.04420971
0.04420971
0.04420971
0.04420971
0.04420971
0.04420971
0.04420971
0.04420971
0.04420971
0.04420971
0.04420971
0.04420971
0.04420971
0.04420971
0.04420971
0.04420971
0.04420971
0.04420971
0.04420971
0.04420971
0.04420971
0.04420971
0.04420971
0.04420971
0.04420971
0.04420971
0.04420971
0.04420971
0.04420971
0.04420971
0.04420971
0.04420971
0.04420971
0.04420971
0.04420971
0.04420971
0.04420971
0.04420971
0.04420971
0.04420971
0.04420971
0.04420971
0.04420971
0.04420971
0.04420971
0.04420971
0.04420971
0.04420971
0.04420971
0.04420971
0.04420971
0.04420971
0.04420971
0.04420971
0.04420971
0.04420971
0.04420971
0.04420971
0.04420971
0.04420971
0.04420971
0.04420971
0.04420971
0.04420971
0.04420971
0.04420971
0.04420971
0.04420971
0.04420971
0.04420971
0.04420971
0.04420971
0.04420971
0.04420971
0.04420971
0.04420971
0.04420971
0.04420971
0.04420971
0.04420971
0.04420971
0.04420971
0.04420971
0.04420971
0.04420971
0.04420971
0.04420971
0.04420971
0.04420971
0.04420971
0.04420971
0.04420971
0.04420971
0.04420971
0.04420971
0.04420971
0.04420971
0.04420971
0.04420971
0.04420971
0.04420971
0.04420971
0.04420971
0.04420971
0.04420971
0.04420971
0.04420971
0.04420971
0.04420971
0.04420971
0.04420971
0.04420971
0.04420971
0.04420971
0.04420971
0.04420971
0.04420971
0.04420971
0.04420971
0.04420971
0.04420971
0.04420971
0.04420971
0.04420971
0.04420971
0.04420971
0.04420971
0.04420971
0.04420971
0.04420971
0.04420971
0.04420971
0.04420971
0.04420971
0.04420971
0.04420971
0.04420971
0.04420971
0.04420971
0.04420971
0.04420971
0.04420971
0.04420971
0.04420971
0.04420971
0.04420971
0.04420971
0.04420971
0.04420971
0.04420971
0.04420971
0.04420971
0.04420971
0.04420971
0.04420971
0.04420971
0.04420971
0.04420971
0.04420971
0.04420971
0.04420971
0.04420971
0.04420971
0.04420971
0.04420971
0.04420971
0.04420971
0.04420971
0.04420971
0.04420971
0.04420971
0.04420971
0.04420971
0.04420971
0.04420971
0.04420971
0.04420971
0.04420971
0.04420971
0.04420971
0.04420971
0.04420971
0.04420971
0.04420971
0.04420971
0.04420971
0.04420971
0.04420971
0.04420971
0.04420971
0.04420971
0.04420971
0.04420971
0.04420971
0.04420971
0.04420971
0.04420971
0.04420971
0.04420971
0.04420971
0.04420971
0.04420971
0.04420971
0.04420971
0.04420971
0.04420971
0.04420971
0.04420971
0.04420971
0.04420971
0.04420971
0.04420971
0.04420971
0.04420971
0.04420971
0.04420971
0.04420971
0.04420971
0.04420971
0.04420971
0.04420971
0.04420971
0.04420971
0.04420971
0.04420971
0.04420971
0.04420971
0.04420971
0.04420971
0.04420971
0.04420971
0.04420971
0.04420971
0.04420971
0.04420971
0.04420971
0.04420971
0.04420971
0.04420971
0.04420971
0.04420971
0.04420971
0.04420971
0.04420971
0.04420971
0.04420971
0.04420971
0.04420971
0.04420971
0.04420971
0.04420971
0.04420971
0.04420971
0.04420971
0.04420971
0.04420971
0.04420971
0.04420971
0.04420971
0.04420971
0.04420971
0.04420971
0.04420971
0.04420971
0.04420971
0.04420971
0.04420971
0.04420971
0.04420971
0.04420971
0.04420971
0.04420971
0.04420971
0.04420971


VECTORS d1 FLOAT
0 -0.7788565 0.6272021
-0.04438261 -0.7562308 0.6527979
-0.08953296 -0.7308237 0.6766687
-0.1352746 -0.7026019 0.6986068
-0.1814126 -0.6715529 0.7184053
-0.227735 -0.6376879 0.7358606
-0.2740135 -0.601043 0.7507755
-0.3200054 -0.5616808 0.7629621
-0.3654559 -0.519692 0.7722449
-0.4101004 -0.4751956 0.7784644
-0.4536676 -0.4283393 0.7814801
-0.4958829 -0.3792996 0.7811735
-0.5364718 -0.3282804 0.7774509
-0.575164 -0.2755118 0.7702465
-0.611697 -0.2212481 0.7595236
-0.6458204 -0.165765 0.7452771
-0.6772999 -0.1093564 0.7275342
-0.7059207 -0.05233102 0.706355
-0.7314914 0.004992073 0.6818324
-0.7538467 0.06228754 0.6540913
-0.7728506 0.1192285 0.6232868
-0.7883979 0.175491 0.589603
-0.8004158 0.2307589 0.5532495
-0.808865 0.2847279 0.5144584
-0.8137396 0.3371103 0.4734813
-0.8150666 0.387638 0.4305848
-0.8129048 0.4360662 0.3860468
-0.807343 0.4821762 0.3401519
-0.798498 0.5257773 0.293188
-0.7865115 0.5667082 0.2454414
-0.7715473 0.6048383 0.1971936
-0.7537882 0.6400675 0.1487177
-0.7334321 0.672326 0.1002749
-0.7106892 0.7015733 0.05211238
-0.6857778 0.7277973 0.004460449
-0.6589215 0.7510119 -0.0424688
-0.6303457 0.7712555 -0.08848303
-0.600275 0.7885883 -0.1334105
-0.5689305 0.80309 -0.1771003
-0.536527 0.8148573 -0.2194228
-0.5032717 0.824001 -0.260269
-0.469362 0.8306438 -0.2995499
-0.4349847 0.8349176 -0.3371958
-0.4003141 0.8369611 -0.3731552
-0.3655124 0.8369178 -0.4073933
-0.3307283 0.8349339 -0.4398912
-0.2960973 0.8311563 -0.4706437
-0.2617416 0.8257315 -0.4996587
-0.2277704 0.8188035 -0.5269549
-0.19428 0.8105132 -0.552561
-0.1613546 0.8009969 -0.5765142
-0.1290666 0.7903861 -0.5988585
-0.09747766 0.7788064 -0.6196441
-0.0666389 0.7663769 -0.6389254
-0.03659208 0.7532105 -0.656761
-0.007370181 0.739413 -0.6732118
0.02100181 0.7250835 -0.6883407
0.04850614 0.710314 -0.7022117
0.07513157 0.6951898 -0.714889
0.1008726 0.6797897 -0.726437
0.125729 0.6641855 -0.7369191
0.1497049 0.6484433 -0.7463979
0.1728084 0.6326228 -0.7549342
0.195051 0.6167783 -0.7625875
0.216447 0.6009585 -0.7694151
0.2370131 0.5852072 -0.7754723
0.2567682 0.5695634 -0.7808121
0.2757326 0.5540616 -0.7854853
0.2939281 0.5387324 -0.7895402
0.3113771 0.5236023 -0.7930227
0.3281032 0.5086944 -0.7959763
0.3441303 0.4940289 -0.7984421
0.3594824 0.4796226 -0.800459
0.3741839 0.4654898 -0.8020634
0.388259 0.4516424 -0.8032896
0.4017318 0.43809 -0.8041696
0.4146259 0.4248402 -0.8047336
0.426965 0.4118988 -0.8050095
0.4387717 0.3992701 -0.8050235
0.4500687 0.3869567 -0.8047998
0.4608777 0.37496 -0.8043611
0.47122 0.3632804 -0.8037283
0.4811162 0.3519169 -0.8029207
0.4905862 0.3408681 -0.8019565
0.4996493 0.3301313 -0.800852
0.5083241 0.3197034 -0.7996226
0.5166285 0.3095807 -0.7982824
0.5245797 0.2997588 -0.7968443
0.5321943 0.2902329 -0.7953201
0.5394882 0.2809978 -0.7937208
0.5464765 0.2720482 -0.7920563
0.553174 0.2633782 -0.7903357
0.5595944 0.2549817 -0.7885674
0.5657511 0.2468527 -0.7867588
0.571657 0.2389847 -0.7849169
0.5773241 0.2313713 -0.783048
0.5827641 0.224006 -0.7811577
0.587988 0.216882 -0.7792511
0.5930064 0.2099928 -0.7773329
0.5978293 0.2033317 -0.7754072
0.6024662 0.1968919 -0.7734779
0.6069263 0.1906669 -0.7715482
0.6112182 0.1846499 -0.7696212
0.61535 0.1788343 -0.7676996
0.6193296 0.1732137 -0.7657858
0.6231642 0.1677814 -0.763882
0.626861 0.1625312 -0.7619901
0.6304264 0.1574566 -0.7601118
0.6338667 0.1525515 -0.7582487
0.6371879 0.1478096 -0.756402
0.6403955 0.143225 -0.7545729
0.6434947 0.1387918 -0.7527625
0.6464905 0.1345041 -0.7509718
0.6493876 0.1303563 -0.7492015
0.6521904 0.1263428 -0.7474524
0.654903 0.1224583 -0.7457252
0.6575292 0.1186975 -0.7440203
0.6600727 0.1150553 -0.7423384
0.6625369 0.1115268 -0.7406799
0.6649249 0.1081071 -0.7390451
0.6672398 0.1047916 -0.7374346
0.6694844 0.1015757 -0.7358485
0.6716613 0.09845516 -0.7342872
0.6737729 0.09542576 -0.732751
0.6758214 0.09248343 -0.7312402
0.6778091 0.08962429 -0.7297549
0.6797379 0.08684456 -0.7282955
0.6816097 0.08414065 -0.7268621
0.6834262 0.08150908 -0.7254549
0.685189 0.07894651 -0.7240742
0.6868997 0.07644974 -0.7227201
0.6885595 0.0740157 -0.7213927
0.6901699 0.07164144 -0.7200923
0.6917321 0.06932411 -0.7188191
0.6932471 0.06706102 -0.7175732
0.694716 0.06484954 -0.7163548
0.6961399 0.06268719 -0.715164
0.6975196 0.06057157 -0.7140011
0.6988559 0.05850039 -0.7128661
0.7001497 0.05647143 -0.7117593
0.7014017 0.0544826 -0.7106809
0.7026125 0.05253186 -0.7096309
0.7037828 0.05061727 -0.7086096
0.7049132 0.04873696 -0.7076172
0.7060041 0.04688916 -0.7066538
0.7070561 0.04507214 -0.7057196
0.7080697 0.04328426 -0.7048147
0.7090451 0.04152394 -0.7039395
0.7099829 0.03978965 -0.7030939
0.7108834 0.03807995 -0.7022783
0.7117468 0.03639343 -0.7014927
0.7125735 0.03472875 -0.7007375
0.7133636 0.03308461 -0.7000127
0.7141176 0.03145977 -0.6993185
0.7148355 0.02985303 -0.6986552
0.7155175 0.02826325 -0.6980228
0.7161639 0.0266893 -0.6974216
0.7167747 0.02513012 -0.6968518
0.7173502 0.02358469 -0.6963135
0.7178903 0.022052 -0.6958069
0.7183953 0.0205311 -0.6953321
0.7188651 0.01902105 -0.6948893
0.7192999 0.01752095 -0.6944787
0.7196998 0.01602994 -0.6941003
0.7200647 0.01454716 -0.6937544
0.7203948 0.01307179 -0.693441
0.7206901 0.01160303 -0.6931603
0.7209505 0.0101401 -0.6929124
0.7211762 0.008682229 -0.6926973
0.7213671 0.007228667 -0.6925151
0.7215233 0.005778676 -0.692366
0.7216448 0.004331529 -0.69225
0.7217316 0.002886507 -0.692167
0.7217836 0.001442899 -0.6921173
0.721801 -3.284542e-09 -0.6921007
0.7217836 -0.001442906 -0.6921173
0.7217316 -0.002886514 -0.692167
0.7216448 -0.004331535 -0.69225
0.7215233 -0.005778682 -0.692366
0.7213671 -0.007228674 -0.6925151
0.7211762 -0.008682236 -0.6926973
0.7209505 -0.01014011 -0.6929124
0.7206901 -0.01160304 -0.6931603
0.7203948 -0.0130718 -0.693441
0.7200647 -0.01454716 -0.6937544
0.7196998 -0.01602994 -0.6941003
0.7192999 -0.01752096 -0.6944787
0.7188651 -0.01902105 -0.6948893
0.7183953 -0.0205311 -0.6953321
0.7178903 -0.02205201 -0.6958069
0.7173502 -0.0235847 -0.6963135
0.7167747 -0.02513013 -0.6968518
0.7161639 -0.02668931 -0.6974216
0.7155175 -0.02826325 -0.6980228
0.7148355 -0.02985304 -0.6986552
0.7141176 -0.03145978 -0.6993185
0.7133636 -0.03308462 -0.7000127
0.7125735 -0.03472876 -0.7007375
0.7117468 -0.03639344 -0.7014927
0.7108834 -0.03807996 -0.7022783
0.7099829 -0.03978966 -0.7030939
0.7090451 -0.04152394 -0.7039395
0.7080697 -0.04328427 -0.7048147
0.7070561 -0.04507215 -0.7057196
0.7060041 -0.04688917 -0.7066538
0.7049132 -0.04873697 -0.7076172
0.7037828 -0.05061727 -0.7086096
0.7026125 -0.05253186 -0.7096309
0.7014017 -0.0544826 -0.7106809
0.7001497 -0.05647144 -0.7117593
0.6988559 -0.05850039 -0.7128661
0.6975196 -0.06057158 -0.7140011
0.6961399 -0.0626872 -0.715164
0.694716 -0.06484955 -0.7163548
0.6932471 -0.06706102 -0.7175732
0.6917321 -0.06932412 -0.7188191
0.6901699 -0.07164144 -0.7200923
0.6885595 -0.07401571 -0.7213927
0.6868997 -0.07644975 -0.7227201