# vtk DataFile Version 2.0
Written badly by Kevin Korner
ASCII
DATASET POLYDATA
POINTS 350 FLOAT
0 0 0
0.00286533 0 0
0.00572868 -6.448677e-05 8.471041e-05
0.008585994 -0.0001914304 0.0002572221
0.01143307 -0.000378509 0.0005204352
0.01426558 -0.0006231079 0.0008770319
0.0170791 -0.0009223213 0.00132945
0.01986912 -0.001272956 0.001879858
0.02263108 -0.00167154 0.002530129
0.02536037 -0.00211433 0.003281818
0.02805238 -0.002597328 0.004136142
0.03070255 -0.003116292 0.005093961
0.03330633 -0.00366676 0.00615576
0.03585928 -0.004244068 0.007321636
0.03835706 -0.004843377 0.008591291
0.04079548 -0.005459694 0.00996402
0.04317051 -0.006087905 0.01143871
0.0454783 -0.006722805 0.01301386
0.04771527 -0.007359126 0.01468754
0.04987804 -0.007991571 0.01645744
0.05196352 -0.008614846 0.01832088
0.05396892 -0.009223696 0.0202748
0.05589172 -0.009812933 0.02231581
0.05772977 -0.01037747 0.02444019
0.0594812 -0.01091235 0.02664394
0.06114452 -0.01141278 0.02892276
0.06271857 -0.01187415 0.03127215
0.06420252 -0.01229206 0.03368738
0.0655959 -0.01266235 0.03616357
0.06689858 -0.01298112 0.03869567
0.06811073 -0.01324472 0.04127856
0.06923287 -0.01344979 0.04390703
0.07026581 -0.01359328 0.04657584
0.07121066 -0.01367243 0.04927975
0.07206879 -0.01368479 0.05201353
0.07284182 -0.01362821 0.05477204
0.07353162 -0.01350086 0.05755018
0.07414026 -0.0133012 0.06034299
0.07466999 -0.01302799 0.06314564
0.07512325 -0.0126803 0.06595345
0.07550261 -0.01225744 0.0687619
0.07581076 -0.01175903 0.07156667
0.0760505 -0.0111849 0.07436364
0.07622471 -0.01053517 0.07714888
0.07633632 -0.009810134 0.07991872
0.07638831 -0.009010331 0.08266967
0.07638369 -0.008136477 0.08539849
0.07632546 -0.007189467 0.08810217
0.07621662 -0.006170356 0.09077793
0.07606014 -0.005080342 0.09342321
0.07585896 -0.003920753 0.09603568
0.07561598 -0.002693024 0.09861323
0.07533402 -0.001398691 0.101154
0.07501585 -3.937172e-05 0.1036562
0.07466415 0.001383248 0.1061184
0.07428154 0.002867427 0.1085393
0.07387055 0.004411378 0.1109179
0.07343358 0.006013283 0.1132531
0.072973 0.0076713 0.1155441
0.07249103 0.009383575 0.1177904
0.07198981 0.01114825 0.1199915
0.07147139 0.01296347 0.1221471
0.07093771 0.0148274 0.1242568
0.07039061 0.0167382 0.1263207
0.06983184 0.01869408 0.1283387
0.06926304 0.02069326 0.130311
0.06868578 0.02273399 0.1322377
0.0681015 0.02481458 0.1341192
0.06751159 0.02693334 0.1359558
0.06691733 0.02908866 0.1377478
0.06631991 0.03127895 0.1394959
0.06572045 0.03350268 0.1412006
0.06512 0.03575835 0.1428624
0.06451952 0.03804451 0.1444819
0.06391989 0.04035978 0.1460599
0.06332195 0.04270281 0.1475971
0.06272644 0.04507229 0.1490941
0.06213407 0.04746697 0.1505517
0.06154548 0.04988566 0.1519707
0.06096123 0.05232719 0.1533519
0.06038187 0.05479046 0.1546961
0.05980787 0.0572744 0.156004
0.05923965 0.05977799 0.1572765
0.05867761 0.06230026 0.1585144
0.05812209 0.06484027 0.1597185
0.0575734 0.06739713 0.1608897
0.0570318 0.06996998 0.1620286
0.05649754 0.07255803 0.1631362
0.05597081 0.07516048 0.1642132
0.0554518 0.0777766 0.1652604
0.05494064 0.08040569 0.1662786
0.05443746 0.08304707 0.1672685
0.05394235 0.0857001 0.168231
0.0534554 0.08836419 0.1691668
0.05297665 0.09103875 0.1700765
0.05250614 0.09372323 0.170961
0.0520439 0.09641711 0.1718209
0.05158992 0.09911989 0.172657
0.0511442 0.1018311 0.1734698
0.05070671 0.1045503 0.1742601
0.05027742 0.1072771 0.1750286
0.04985628 0.1100111 0.1757757
0.04944324 0.1127518 0.1765023
0.04903823 0.115499 0.1772088
0.04864117 0.1182522 0.1778959
0.048252 0.1210112 0.1785641
0.04787062 0.1237757 0.179214
0.04749695 0.1265453 0.1798462
0.04713089 0.1293199 0.1804611
0.04677235 0.132099 0.1810592
0.04642121 0.1348826 0.1816411
0.04607739 0.1376703 0.1822072
0.04574076 0.140462 0.182758
0.04541124 0.1432574 0.183294
0.0450887 0.1460563 0.1838155
0.04477305 0.1488586 0.184323
0.04446417 0.1516641 0.1848169
0.04416196 0.1544726 0.1852976
0.04386631 0.157284 0.1857654
0.04357712 0.1600981 0.1862208
0.04329429 0.1629148 0.1866639
0.04301771 0.1657339 0.1870953
0.04274729 0.1685554 0.1875151
0.04248292 0.1713791 0.1879238
0.04222453 0.1742049 0.1883215
0.04197201 0.1770327 0.1887086
0.04172529 0.1798624 0.1890853
0.04148427 0.182694 0.1894518
0.04124888 0.1855273 0.1898085
0.04101905 0.1883622 0.1901555
0.04079469 0.1911987 0.190493
0.04057574 0.1940368 0.1908213
0.04036213 0.1968762 0.1911405
0.04015381 0.1997171 0.1914508
0.03995071 0.2025592 0.1917524
0.03975279 0.2054027 0.1920454
0.03955999 0.2082473 0.19233
0.03937226 0.2110931 0.1926064
0.03918957 0.21394 0.1928746
0.03901187 0.2167879 0.1931347
0.03883913 0.2196369 0.193387
0.03867132 0.2224869 0.1936315
0.03850841 0.2253377 0.1938682
0.03835038 0.2281895 0.1940973
0.03819721 0.2310422 0.1943189
0.03804887 0.2338956 0.194533
0.03790537 0.2367499 0.1947398
0.03776668 0.2396049 0.1949391
0.03763279 0.2424606 0.1951312
0.03750371 0.2453171 0.195316
0.03737944 0.2481742 0.1954936
0.03725996 0.251032 0.1956641
0.03714529 0.2538903 0.1958274
0.03703544 0.2567493 0.1959836
0.0369304 0.2596088 0.1961327
0.0368302 0.2624689 0.1962748
0.03673484 0.2653294 0.1964098
0.03664433 0.2681905 0.1965377
0.03655871 0.271052 0.1966586
0.03647797 0.2739139 0.1967724
0.03640214 0.2767762 0.1968792
0.03633125 0.2796389 0.1969789
0.0362653 0.282502 0.1970716
0.03620432 0.2853654 0.1971572
0.03614834 0.2882291 0.1972357
0.03609736 0.2910931 0.1973072
0.03605142 0.2939573 0.1973715
0.03601052 0.2968218 0.1974287
0.0359747 0.2996865 0.1974789
0.03594395 0.3025513 0.1975218
0.03591831 0.3054163 0.1975577
0.03589778 0.3082814 0.1975863
0.03588237 0.3111466 0.1976078
0.0358721 0.3140119 0.1976222
0.03586696 0.3168772 0.1976294
0.03586696 0.3197426 0.1976294
0.0358721 0.3226079 0.1976222
0.03588237 0.3254731 0.1976078
0.03589778 0.3283383 0.1975863
0.03591831 0.3312035 0.1975577
0.03594395 0.3340685 0.1975218
0.0359747 0.3369333 0.1974789
0.03601052 0.339798 0.1974287
0.03605142 0.3426624 0.1973715
0.03609736 0.3455267 0.1973072
0.03614834 0.3483907 0.1972357
0.03620432 0.3512544 0.1971572
0.0362653 0.3541178 0.1970716
0.03633125 0.3569808 0.1969789
0.03640214 0.3598435 0.1968792
0.03647797 0.3627059 0.1967724
0.03655871 0.3655678 0.1966586
0.03664433 0.3684293 0.1965377
0.03673484 0.3712903 0.1964098
0.0368302 0.3741509 0.1962748
0.0369304 0.377011 0.1961327
0.03703544 0.3798705 0.1959836
0.03714529 0.3827294 0.1958274
0.03725996 0.3855878 0.1956641
0.03737944 0.3884456 0.1954936
0.03750371 0.3913027 0.195316
0.03763279 0.3941591 0.1951312
0.03776668 0.3970149 0.1949391
0.03790537 0.3998699 0.1947397
0.03804887 0.4027242 0.194533
0.03819721 0.4055776 0.1943189
0.03835038 0.4084303 0.1940973
0.03850841 0.411282 0.1938682
0.03867132 0.4141329 0.1936315
0.03883913 0.4169829 0.193387
0.03901187 0.4198318 0.1931347
0.03918957 0.4226798 0.1928746
0.03937226 0.4255267 0.1926064
0.03955999 0.4283725 0.19233
0.03975279 0.4312171 0.1920454
0.03995071 0.4340605 0.1917524
0.04015381 0.4369027 0.1914508
0.04036213 0.4397435 0.1911405
0.04057574 0.442583 0.1908212
0.04079469 0.445421 0.190493
0.04101905 0.4482576 0.1901555
0.04124888 0.4510925 0.1898085
0.04148427 0.4539258 0.1894518
0.04172529 0.4567573 0.1890853
0.04197201 0.4595871 0.1887086
0.04222453 0.4624149 0.1883215
0.04248292 0.4652407 0.1879238
0.04274729 0.4680644 0.1875151
0.04301771 0.4708858 0.1870953
0.04329429 0.473705 0.1866639
0.04357712 0.4765217 0.1862208
0.04386631 0.4793358 0.1857654
0.04416196 0.4821472 0.1852976
0.04446417 0.4849557 0.1848169
0.04477305 0.4877612 0.184323
0.0450887 0.4905635 0.1838155
0.04541124 0.4933624 0.183294
0.04574076 0.4961578 0.182758
0.04607739 0.4989495 0.1822072
0.04642121 0.5017372 0.1816411
0.04677235 0.5045208 0.1810592
0.04713089 0.5072999 0.180461
0.04749695 0.5100745 0.1798462
0.04787062 0.5128441 0.179214
0.048252 0.5156086 0.1785641
0.04864117 0.5183676 0.1778959
0.04903823 0.5211208 0.1772088
0.04944324 0.523868 0.1765023
0.04985628 0.5266087 0.1757757
0.05027742 0.5293427 0.1750286
0.05070671 0.5320694 0.1742601
0.0511442 0.5347887 0.1734698
0.05158992 0.5374999 0.172657
0.0520439 0.5402027 0.1718209
0.05250614 0.5428965 0.170961
0.05297665 0.545581 0.1700765
0.0534554 0.5482556 0.1691668
0.05394235 0.5509197 0.168231
0.05443746 0.5535727 0.1672685
0.05494064 0.5562141 0.1662786
0.0554518 0.5588432 0.1652604
0.05597081 0.5614593 0.1642132
0.05649754 0.5640617 0.1631362
0.0570318 0.5666498 0.1620286
0.0575734 0.5692226 0.1608897
0.05812209 0.5717795 0.1597185
0.05867761 0.5743195 0.1585144
0.05923965 0.5768418 0.1572765
0.05980787 0.5793454 0.156004
0.06038187 0.5818293 0.1546961
0.06096123 0.5842926 0.1533519
0.06154548 0.5867341 0.1519707
0.06213407 0.5891528 0.1505517
0.06272644 0.5915475 0.1490941
0.06332195 0.593917 0.1475971
0.06391989 0.59626 0.1460599
0.06451952 0.5985753 0.1444819
0.06512 0.6008614 0.1428624
0.06572045 0.6031171 0.1412006
0.06631991 0.6053408 0.1394959
0.06691733 0.6075311 0.1377478
0.06751159 0.6096864 0.1359558
0.0681015 0.6118052 0.1341192
0.06868578 0.6138858 0.1322377
0.06926304 0.6159265 0.130311
0.06983184 0.6179257 0.1283387
0.07039061 0.6198816 0.1263207
0.07093771 0.6217924 0.1242568
0.07147139 0.6236563 0.1221471
0.07198981 0.6254715 0.1199915
0.07249103 0.6272362 0.1177904
0.072973 0.6289485 0.1155441
0.07343358 0.6306065 0.1132531
0.07387055 0.6322084 0.1109179
0.07428154 0.6337523 0.1085393
0.07466415 0.6352365 0.1061184
0.07501585 0.6366591 0.1036562
0.07533402 0.6380185 0.101154
0.07561598 0.6393128 0.09861323
0.07585896 0.6405405 0.09603568
0.07606014 0.6417001 0.09342321
0.07621662 0.6427901 0.09077793
0.07632546 0.6438092 0.08810217
0.07638369 0.6447562 0.08539849
0.07638831 0.6456301 0.08266967
0.07633632 0.6464299 0.07991872
0.07622471 0.6471549 0.07714888
0.0760505 0.6478047 0.07436364
0.07581076 0.6483788 0.07156667
0.07550261 0.6488772 0.0687619
0.07512325 0.6493001 0.06595345
0.07466999 0.6496478 0.06314564
0.07414026 0.649921 0.06034299
0.07353162 0.6501206 0.05755018
0.07284182 0.650248 0.05477204
0.07206879 0.6503046 0.05201353
0.07121066 0.6502922 0.04927975
0.07026581 0.6502131 0.04657584
0.06923287 0.6500696 0.04390703
0.06811073 0.6498645 0.04127856
0.06689858 0.6496009 0.03869567
0.0655959 0.6492821 0.03616357
0.06420252 0.6489118 0.03368738
0.06271857 0.6484939 0.03127215
0.06114452 0.6480326 0.02892276
0.0594812 0.6475321 0.02664394
0.05772977 0.6469972 0.02444019
0.05589172 0.6464327 0.02231581
0.05396892 0.6458435 0.0202748
0.05196352 0.6452346 0.01832088
0.04987804 0.6446113 0.01645744
0.04771527 0.6439789 0.01468754
0.0454783 0.6433426 0.01301386
0.04317051 0.6427077 0.01143871
0.04079548 0.6420795 0.00996402
0.03835706 0.6414631 0.008591291
0.03585928 0.6408638 0.007321636
0.03330633 0.6402865 0.00615576
0.03070255 0.6397361 0.005093961
0.02805238 0.6392171 0.004136142
0.02536037 0.6387341 0.003281818
0.02263108 0.6382913 0.002530129
0.01986912 0.6378927 0.001879858
0.0170791 0.6375421 0.00132945
0.01426558 0.6372429 0.0008770319
0.01143307 0.6369983 0.0005204352
0.008585994 0.6368112 0.0002572221
0.00572868 0.6366843 8.471041e-05
0.00286533 0.6366198 0
0 0.6366198 0

LINES 349 1047
2 0 1
2 1 2
2 2 3
2 3 4
2 4 5
2 5 6
2 6 7
2 7 8
2 8 9
2 9 10
2 10 11
2 11 12
2 12 13
2 13 14
2 14 15
2 15 16
2 16 17
2 17 18
2 18 19
2 19 20
2 20 21
2 21 22
2 22 23
2 23 24
2 24 25
2 25 26
2 26 27
2 27 28
2 28 29
2 29 30
2 30 31
2 31 32
2 32 33
2 33 34
2 34 35
2 35 36
2 36 37
2 37 38
2 38 39
2 39 40
2 40 41
2 41 42
2 42 43
2 43 44
2 44 45
2 45 46
2 46 47
2 47 48
2 48 49
2 49 50
2 50 51
2 51 52
2 52 53
2 53 54
2 54 55
2 55 56
2 56 57
2 57 58
2 58 59
2 59 60
2 60 61
2 61 62
2 62 63
2 63 64
2 64 65
2 65 66
2 66 67
2 67 68
2 68 69
2 69 70
2 70 71
2 71 72
2 72 73
2 73 74
2 74 75
2 75 76
2 76 77
2 77 78
2 78 79
2 79 80
2 80 81
2 81 82
2 82 83
2 83 84
2 84 85
2 85 86
2 86 87
2 87 88
2 88 89
2 89 90
2 90 91
2 91 92
2 92 93
2 93 94
2 94 95
2 95 96
2 96 97
2 97 98
2 98 99
2 99 100
2 100 101
2 101 102
2 102 103
2 103 104
2 104 105
2 105 106
2 106 107
2 107 108
2 108 109
2 109 110
2 110 111
2 111 112
2 112 113
2 113 114
2 114 115
2 115 116
2 116 117
2 117 118
2 118 119
2 119 120
2 120 121
2 121 122
2 122 123
2 123 124
2 124 125
2 125 126
2 126 127
2 127 128
2 128 129
2 129 130
2 130 131
2 131 132
2 132 133
2 133 134
2 134 135
2 135 136
2 136 137
2 137 138
2 138 139
2 139 140
2 140 141
2 141 142
2 142 143
2 143 144
2 144 145
2 145 146
2 146 147
2 147 148
2 148 149
2 149 150
2 150 151
2 151 152
2 152 153
2 153 154
2 154 155
2 155 156
2 156 157
2 157 158
2 158 159
2 159 160
2 160 161
2 161 162
2 162 163
2 163 164
2 164 165
2 165 166
2 166 167
2 167 168
2 168 169
2 169 170
2 170 171
2 171 172
2 172 173
2 173 174
2 174 175
2 175 176
2 176 177
2 177 178
2 178 179
2 179 180
2 180 181
2 181 182
2 182 183
2 183 184
2 184 185
2 185 186
2 186 187
2 187 188
2 188 189
2 189 190
2 190 191
2 191 192
2 192 193
2 193 194
2 194 195
2 195 196
2 196 197
2 197 198
2 198 199
2 199 200
2 200 201
2 201 202
2 202 203
2 203 204
2 204 205
2 205 206
2 206 207
2 207 208
2 208 209
2 209 210
2 210 211
2 211 212
2 212 213
2 213 214
2 214 215
2 215 216
2 216 217
2 217 218
2 218 219
2 219 220
2 220 221
2 221 222
2 222 223
2 223 224
2 224 225
2 225 226
2 226 227
2 227 228
2 228 229
2 229 230
2 230 231
2 231 232
2 232 233
2 233 234
2 234 235
2 235 236
2 236 237
2 237 238
2 238 239
2 239 240
2 240 241
2 241 242
2 242 243
2 243 244
2 244 245
2 245 246
2 246 247
2 247 248
2 248 249
2 249 250
2 250 251
2 251 252
2 252 253
2 253 254
2 254 255
2 255 256
2 256 257
2 257 258
2 258 259
2 259 260
2 260 261
2 261 262
2 262 263
2 263 264
2 264 265
2 265 266
2 266 267
2 267 268
2 268 269
2 269 270
2 270 271
2 271 272
2 272 273
2 273 274
2 274 275
2 275 276
2 276 277
2 277 278
2 278 279
2 279 280
2 280 281
2 281 282
2 282 283
2 283 284
2 284 285
2 285 286
2 286 287
2 287 288
2 288 289
2 289 290
2 290 291
2 291 292
2 292 293
2 293 294
2 294 295
2 295 296
2 296 297
2 297 298
2 298 299
2 299 300
2 300 301
2 301 302
2 302 303
2 303 304
2 304 305
2 305 306
2 306 307
2 307 308
2 308 309
2 309 310
2 310 311
2 311 312
2 312 313
2 313 314
2 314 315
2 315 316
2 316 317
2 317 318
2 318 319
2 319 320
2 320 321
2 321 322
2 322 323
2 323 324
2 324 325
2 325 326
2 326 327
2 327 328
2 328 329
2 329 330
2 330 331
2 331 332
2 332 333
2 333 334
2 334 335
2 335 336
2 336 337
2 337 338
2 338 339
2 339 340
2 340 341
2 341 342
2 342 343
2 343 344
2 344 345
2 345 346
2 346 347
2 347 348
2 348 349


POINT_DATA 350
SCALARS a FLOAT 1
LOOKUP_TABLE default
0.0005894628
0.0005894628
0.0005894628
0.0005894628
0.0005894628
0.0005894628
0.0005894628
0.0005894628
0.0005894628
0.0005894628
0.0005894628
0.0005894628
0.0005894628
0.0005894628
0.0005894628
0.0005894628
0.0005894628
0.0005894628
0.0005894628
0.0005894628
0.0005894628
0.0005894628
0.0005894628
0.0005894628
0.0005894628
0.0005894628
0.0005894628
0.0005894628
0.0005894628
0.0005894628
0.0005894628
0.0005894628
0.0005894628
0.0005894628
0.0005894628
0.0005894628
0.0005894628
0.0005894628
0.0005894628
0.0005894628
0.0005894628
0.0005894628
0.0005894628
0.0005894628
0.0005894628
0.0005894628
0.0005894628
0.0005894628
0.0005894628
0.0005894628
0.0005894628
0.0005894628
0.0005894628
0.0005894628
0.0005894628
0.0005894628
0.0005894628
0.0005894628
0.0005894628
0.0005894628
0.0005894628
0.0005894628
0.0005894628
0.0005894628
0.0005894628
0.0005894628
0.0005894628
0.0005894628
0.0005894628
0.0005894628
0.0005894628
0.0005894628
0.0005894628
0.0005894628
0.0005894628
0.0005894628
0.0005894628
0.0005894628
0.0005894628
0.0005894628
0.0005894628
0.0005894628
0.0005894628
0.0005894628
0.0005894628
0.0005894628
0.0005894628
0.0005894628
0.0005894628
0.0005894628
0.0005894628
0.0005894628
0.0005894628
0.0005894628
0.0005894628
0.0005894628
0.0005894628
0.0005894628
0.0005894628
0.0005894628
0.0005894628
0.0005894628
0.0005894628
0.0005894628
0.0005894628
0.0005894628
0.0005894628
0.0005894628
0.0005894628
0.0005894628
0.0005894628
0.0005894628
0.0005894628
0.0005894628
0.0005894628
0.0005894628
0.0005894628
0.0005894628
0.0005894628
0.0005894628
0.0005894628
0.0005894628
0.0005894628
0.0005894628
0.0005894628
0.0005894628
0.0005894628
0.0005894628
0.0005894628
0.0005894628
0.0005894628
0.0005894628
0.0005894628
0.0005894628
0.0005894628
0.0005894628
0.0005894628
0.0005894628
0.0005894628
0.0005894628
0.0005894628
0.0005894628
0.0005894628
0.0005894628
0.0005894628
0.0005894628
0.0005894628
0.0005894628
0.0005894628
0.0005894628
0.0005894628
0.0005894628
0.0005894628
0.0005894628
0.0005894628
0.0005894628
0.0005894628
0.0005894628
0.0005894628
0.0005894628
0.0005894628
0.0005894628
0.0005894628
0.0005894628
0.0005894628
0.0005894628
0.0005894628
0.0005894628
0.0005894628
0.0005894628
0.0005894628
0.0005894628
0.0005894628
0.0005894628
0.0005894628
0.0005894628
0.0005894628
0.0005894628
0.0005894628
0.0005894628
0.0005894628
0.0005894628
0.0005894628
0.0005894628
0.0005894628
0.0005894628
0.0005894628
0.0005894628
0.0005894628
0.0005894628
0.0005894628
0.0005894628
0.0005894628
0.0005894628
0.0005894628
0.0005894628
0.0005894628
0.0005894628
0.0005894628
0.0005894628
0.0005894628
0.0005894628
0.0005894628
0.0005894628
0.0005894628
0.0005894628
0.0005894628
0.0005894628
0.0005894628
0.0005894628
0.0005894628
0.0005894628
0.0005894628
0.0005894628
0.0005894628
0.0005894628
0.0005894628
0.0005894628
0.0005894628
0.0005894628
0.0005894628
0.0005894628
0.0005894628
0.0005894628
0.0005894628
0.0005894628
0.0005894628
0.0005894628
0.0005894628
0.0005894628
0.0005894628
0.0005894628
0.0005894628
0.0005894628
0.0005894628
0.0005894628
0.0005894628
0.0005894628
0.0005894628
0.0005894628
0.0005894628
0.0005894628
0.0005894628
0.0005894628
0.0005894628
0.0005894628
0.0005894628
0.0005894628
0.0005894628
0.0005894628
0.0005894628
0.0005894628
0.0005894628
0.0005894628
0.0005894628
0.0005894628
0.0005894628
0.0005894628
0.0005894628
0.0005894628
0.0005894628
0.0005894628
0.0005894628
0.0005894628
0.0005894628
0.0005894628
0.0005894628
0.0005894628
0.0005894628
0.0005894628
0.0005894628
0.0005894628
0.0005894628
0.0005894628
0.0005894628
0.0005894628
0.0005894628
0.0005894628
0.0005894628
0.0005894628
0.0005894628
0.0005894628
0.0005894628
0.0005894628
0.0005894628
0.0005894628
0.0005894628
0.0005894628
0.0005894628
0.0005894628
0.0005894628
0.0005894628
0.0005894628
0.0005894628
0.0005894628
0.0005894628
0.0005894628
0.0005894628
0.0005894628
0.0005894628
0.0005894628
0.0005894628
0.0005894628
0.0005894628
0.0005894628
0.0005894628
0.0005894628
0.0005894628
0.0005894628
0.0005894628
0.0005894628
0.0005894628
0.0005894628
0.0005894628
0.0005894628
0.0005894628
0.0005894628
0.0005894628
0.0005894628
0.0005894628
0.0005894628
0.0005894628
0.0005894628
0.0005894628
0.0005894628
0.0005894628
0.0005894628
0.0005894628
0.0005894628
0.0005894628
0.0005894628
0.0005894628
0.0005894628
0.0005894628
0.0005894628
0.0005894628
0.0005894628
0.0005894628
0.0005894628
0.0005894628
0.0005894628
0.0005894628
0.0005894628
0.0005894628
0.0005894628
0.0005894628
0.0005894628
0.0005894628
0.0005894628
0.0005894628


SCALARS b FLOAT 1
LOOKUP_TABLE default
0.04420971
0.04420971
0.04420971
0.04420971
0.04420971
0.04420971
0.04420971
0.04420971
0.04420971
0.04420971
0.04420971
0.04420971
0.04420971
0.04420971
0.04420971
0.04420971
0.04420971
0.04420971
0.04420971
0.04420971
0.04420971
0.04420971
0.04420971
0.04420971
0.04420971
0.04420971
0.04420971
0.04420971
0.04420971
0.04420971
0.04420971
0.04420971
0.04420971
0.04420971
0.04420971
0.04420971
0.04420971
0.04420971
0.04420971
0.04420971
0.04420971
0.04420971
0.04420971
0.04420971
0.04420971
0.04420971
0.04420971
0.04420971
0.04420971
0.04420971
0.04420971
0.04420971
0.04420971
0.04420971
0.04420971
0.04420971
0.04420971
0.04420971
0.04420971
0.04420971
0.04420971
0.04420971
0.04420971
0.04420971
0.04420971
0.04420971
0.04420971
0.04420971
0.04420971
0.04420971
0.04420971
0.04420971
0.04420971
0.04420971
0.04420971
0.04420971
0.04420971
0.04420971
0.04420971
0.04420971
0.04420971
0.04420971
0.04420971
0.04420971
0.04420971
0.04420971
0.04420971
0.04420971
0.04420971
0.04420971
0.04420971
0.04420971
0.04420971
0.04420971
0.04420971
0.04420971
0.04420971
0.04420971
0.04420971
0.04420971
0.04420971
0.04420971
0.04420971
0.04420971
0.04420971
0.04420971
0.04420971
0.04420971
0.04420971
0.04420971
0.04420971
0.04420971
0.04420971
0.04420971
0.04420971
0.04420971
0.04420971
0.04420971
0.04420971
0.04420971
0.04420971
0.04420971
0.04420971
0.04420971
0.04420971
0.04420971
0.04420971
0.04420971
0.04420971
0.04420971
0.04420971
0.04420971
0.04420971
0.04420971
0.04420971
0.04420971
0.04420971
0.04420971
0.04420971
0.04420971
0.04420971
0.04420971
0.04420971
0.04420971
0.04420971
0.04420971
0.04420971
0.04420971
0.04420971
0.04420971
0.04420971
0.04420971
0.04420971
0.04420971
0.04420971
0.04420971
0.04420971
0.04420971
0.04420971
0.04420971
0.04420971
0.04420971
0.04420971
0.04420971
0.04420971
0.04420971
0.04420971
0.04420971
0.04420971
0.04420971
0.04420971
0.04420971
0.04420971
0.04420971
0.04420971
0.04420971
0.04420971
0.04420971
0.04420971
0.04420971
0.04420971
0.04420971
0.04420971
0.04420971
0.04420971
0.04420971
0.04420971
0.04420971
0.04420971
0.04420971
0.04420971
0.04420971
0.04420971
0.04420971
0.04420971
0.04420971
0.04420971
0.04420971
0.04420971
0.04420971
0.04420971
0.04420971
0.04420971
0.04420971
0.04420971
0.04420971
0.04420971
0.04420971
0.04420971
0.04420971
0.04420971
0.04420971
0.04420971
0.04420971
0.04420971
0.04420971
0.04420971
0.04420971
0.04420971
0.04420971
0.04420971
0.04420971
0.04420971
0.04420971
0.04420971
0.04420971
0.04420971
0.04420971
0.04420971
0.04420971
0.04420971
0.04420971
0.04420971
0.04420971
0.04420971
0.04420971
0.04420971
0.04420971
0.04420971
0.04420971
0.04420971
0.04420971
0.04420971
0.04420971
0.04420971
0.04420971
0.04420971
0.04420971
0.04420971
0.04420971
0.04420971
0.04420971
0.04420971
0.04420971
0.04420971
0.04420971
0.04420971
0.04420971
0.04420971
0.04420971
0.04420971
0.04420971
0.04420971
0.04420971
0.04420971
0.04420971
0.04420971
0.04420971
0.04420971
0.04420971
0.04420971
0.04420971
0.04420971
0.04420971
0.04420971
0.04420971
0.04420971
0.04420971
0.04420971
0.04420971
0.04420971
0.04420971
0.04420971
0.04420971
0.04420971
0.04420971
0.04420971
0.04420971
0.04420971
0.04420971
0.04420971
0.04420971
0.04420971
0.04420971
0.04420971
0.04420971
0.04420971
0.04420971
0.04420971
0.04420971
0.04420971
0.04420971
0.04420971
0.04420971
0.04420971
0.04420971
0.04420971
0.04420971
0.04420971
0.04420971
0.04420971
0.04420971
0.04420971
0.04420971
0.04420971
0.04420971
0.04420971
0.04420971
0.04420971
0.04420971
0.04420971
0.04420971
0.04420971
0.04420971
0.04420971
0.04420971
0.04420971
0.04420971
0.04420971
0.04420971
0.04420971
0.04420971
0.04420971
0.04420971
0.04420971
0.04420971
0.04420971
0.04420971
0.04420971
0.04420971
0.04420971
0.04420971
0.04420971
0.04420971
0.04420971
0.04420971
0.04420971
0.04420971
0.04420971
0.04420971


VECTORS d1 FLOAT
0 -0.6183535 0.7859001
-0.03715077 -0.5923534 0.8048213
-0.07471114 -0.5646245 0.8219595
-0.1125661 -0.5351984 0.8371926
-0.1505935 -0.5041183 0.8504036
-0.1886643 -0.4714389 0.8614819
-0.2266436 -0.437227 0.8703248
-0.2643918 -0.4015613 0.8768384
-0.3017651 -0.3645319 0.8809394
-0.338617 -0.3262408 0.8825562
-0.3747996 -0.2868006 0.8816296
-0.4101647 -0.2463341 0.8781141
-0.444565 -0.204974 0.8719791
-0.4778562 -0.1628611 0.863209
-0.5098975 -0.1201439 0.851804
-0.5405538 -0.07697683 0.8377805
-0.5696964 -0.03351942 0.8211714
-0.5972051 0.01006555 0.8020254
-0.6229684 0.05361334 0.7804075
-0.6468856 0.09695885 0.756398
-0.6688672 0.1399381 0.7300918
-0.6888357 0.18239 0.7015976
-0.7067268 0.2241576 0.671037
-0.7224891 0.2650894 0.6385429
-0.7360853 0.3050413 0.6042584
-0.7474915 0.3438772 0.5683352
-0.7566979 0.3814704 0.5309319
-0.7637079 0.4177045 0.4922127
-0.7685382 0.452474 0.4523454
-0.7712181 0.4856855 0.4115
-0.7717887 0.5172574 0.3698472
-0.7703023 0.5471207 0.3275565
-0.7668213 0.5752191 0.284795
-0.7614172 0.6015084 0.2417258
-0.75417 0.6259573 0.1985072
-0.7451663 0.6485459 0.1552912
-0.734499 0.6692663 0.1122225
-0.7222656 0.6881212 0.06943809
-0.7085675 0.7051238 0.02706604
-0.6935086 0.7202968 -0.01477461
-0.6771947 0.7336717 -0.05597444
-0.6597321 0.7452879 -0.09643382
-0.6412269 0.7551919 -0.1360631
-0.6217844 0.7634365 -0.1747825
-0.6015078 0.7700797 -0.2125221
-0.5804982 0.7751841 -0.2492215
-0.5588536 0.7788161 -0.2848299
-0.5366686 0.7810448 -0.3193052
-0.5140337 0.7819417 -0.3526139
-0.4910355 0.7815796 -0.3847305
-0.4677558 0.7800322 -0.4156373
-0.4442719 0.7773735 -0.4453234
-0.4206565 0.7736772 -0.4737845
-0.3969771 0.7690161 -0.5010223
-0.3732965 0.7634622 -0.5270439
-0.3496727 0.7570855 -0.551861
-0.3261589 0.7499545 -0.5754899
-0.3028036 0.7421355 -0.5979506
-0.2796509 0.7336923 -0.6192665
-0.2567404 0.7246865 -0.6394637
-0.2341076 0.7151768 -0.658571
-0.2117839 0.7052195 -0.6766189
-0.1897972 0.6948676 -0.6936397
-0.1681715 0.6841719 -0.7096669
-0.1469276 0.6731799 -0.7247352
-0.1260833 0.6619365 -0.7388796
-0.1056532 0.6504839 -0.7521357
-0.08564929 0.6388612 -0.7645394
-0.06608123 0.6271053 -0.7761264
-0.0469562 0.6152503 -0.7869321
-0.02827934 0.6033278 -0.7969917
-0.01005388 0.591367 -0.8063399
0.007718717 0.5793949 -0.8150104
0.02503852 0.5674361 -0.8230367
0.04190704 0.5555132 -0.830451
0.05832702 0.543647 -0.8372848
0.07430234 0.5318562 -0.8435687
0.08983787 0.5201577 -0.8493321
0.1049393 0.5085669 -0.8546037
0.1196132 0.4970975 -0.8594107
0.1338667 0.4857617 -0.8637797
0.1477075 0.4745704 -0.8677358
0.1611438 0.4635333 -0.8713034
0.1741841 0.4526587 -0.8745056
0.1868373 0.4419538 -0.8773646
0.1991126 0.4314251 -0.8799014
0.2110193 0.4210777 -0.8821363
0.2225669 0.4109161 -0.8840882
0.2337651 0.4009439 -0.8857753
0.2446233 0.391164 -0.8872149
0.2551513 0.3815784 -0.8884232
0.2653587 0.3721887 -0.8894157
0.2752551 0.3629959 -0.8902071
0.2848499 0.3540004 -0.890811
0.2941526 0.345202 -0.8912406
0.3031724 0.3366003 -0.8915081
0.3119185 0.3281943 -0.8916251
0.3203999 0.3199827 -0.8916025
0.3286255 0.3119638 -0.8914504
0.3366037 0.3041358 -0.8911786
0.3443432 0.2964963 -0.8907961
0.3518522 0.2890429 -0.8903113
0.3591387 0.2817729 -0.8897322
0.3662107 0.2746833 -0.8890663
0.3730758 0.2677709 -0.8883204
0.3797415 0.2610326 -0.8875012
0.3862149 0.2544648 -0.8866148
0.3925032 0.2480639 -0.8856667
0.3986131 0.2418263 -0.8846625
0.4045512 0.235748 -0.883607
0.4103238 0.2298252 -0.8825048
0.4159373 0.2240538 -0.8813604
0.4213974 0.2184297 -0.8801777
0.4267098 0.2129487 -0.8789605
0.4318802 0.2076065 -0.8777124
0.4369138 0.202399 -0.8764365
0.4418156 0.1973216 -0.8751361
0.4465905 0.1923701 -0.8738138
0.4512432 0.1875402 -0.8724725
0.4557781 0.1828272 -0.8711146
0.4601993 0.178227 -0.8697423
0.464511 0.173735 -0.868358
0.468717 0.1693468 -0.8669637
0.4728208 0.1650582 -0.8655613
0.4768259 0.1608647 -0.8641525
0.4807355 0.1567622 -0.8627393
0.4845526 0.1527462 -0.8613231
0.48828 0.1488126 -0.8599055
0.4919205 0.1449574 -0.858488
0.4954765 0.1411763 -0.8570719
0.4989503 0.1374655 -0.8556587
0.502344 0.133821 -0.8542497
0.5056595 0.130239 -0.852846
0.5088988 0.1267157 -0.8514489
0.5120633 0.1232475 -0.8500595
0.5151547 0.1198308 -0.8486791
0.5181741 0.1164621 -0.8473088
0.5211229 0.1131381 -0.8459496
0.524002 0.1098554 -0.8446027
0.5268124 0.1066109 -0.8432691
0.5295547 0.1034015 -0.8419501
0.5322297 0.1002242 -0.8406465
0.5348378 0.09707613 -0.8393597
0.5373794 0.09395444 -0.8380906
0.5398547 0.09085646 -0.8368405
0.5422638 0.08777959 -0.8356104
0.5446067 0.08472133 -0.8344015
0.5468833 0.08167927 -0.8332149
0.5490933 0.07865112 -0.832052
0.5512362 0.07563466 -0.830914
0.5533116 0.07262781 -0.8298021
0.5553188 0.06962855 -0.8287176
0.557257 0.06663499 -0.827662
0.5591254 0.06364536 -0.8266366
0.560923 0.06065797 -0.8256428
0.5626486 0.05767127 -0.8246821
0.5643009 0.05468382 -0.8237561
0.5658787 0.0516943 -0.8228664
0.5673803 0.04870153 -0.8220144
0.5688043 0.04570446 -0.821202
0.570149 0.0427022 -0.8204308
0.5714126 0.03969398 -0.8197024
0.5725932 0.0366792 -0.8190187
0.5736891 0.03365743 -0.8183814
0.5746982 0.03062839 -0.8177921
0.5756186 0.027592 -0.8172527
0.5764485 0.02454832 -0.8167647
0.5771859 0.02149761 -0.8163298
0.5778291 0.01844028 -0.8159494
0.5783765 0.01537693 -0.815625
0.5788265 0.01230829 -0.8153578
0.579178 0.009235243 -0.8151488
0.5794298 0.006158777 -0.8149989
0.5795812 0.003079978 -0.8149087
0.5796317 -3.196959e-09 -0.8148786
0.5795812 -0.003079984 -0.8149087
0.5794298 -0.006158783 -0.8149989
0.579178 -0.00923525 -0.8151488
0.5788265 -0.0123083 -0.8153578
0.5783765 -0.01537694 -0.815625
0.5778291 -0.01844029 -0.8159494
0.5771859 -0.02149761 -0.8163298
0.5764485 -0.02454832 -0.8167647
0.5756186 -0.027592 -0.8172527
0.5746982 -0.0306284 -0.8177921
0.5736891 -0.03365743 -0.8183814
0.5725932 -0.0366792 -0.8190187
0.5714126 -0.03969398 -0.8197024
0.570149 -0.0427022 -0.8204308
0.5688043 -0.04570447 -0.821202
0.5673803 -0.04870153 -0.8220144
0.5658787 -0.0516943 -0.8228664
0.5643009 -0.05468382 -0.8237561
0.5626486 -0.05767127 -0.8246821
0.560923 -0.06065798 -0.8256428
0.5591254 -0.06364537 -0.8266366
0.557257 -0.066635 -0.827662
0.5553188 -0.06962855 -0.8287176
0.5533116 -0.07262781 -0.8298021
0.5512362 -0.07563467 -0.830914
0.5490933 -0.07865112 -0.832052
0.5468833 -0.08167928 -0.8332149
0.5446067 -0.08472133 -0.8344015
0.5422638 -0.08777959 -0.8356104
0.5398547 -0.09085646 -0.8368405
0.5373794 -0.09395444 -0.8380906
0.5348378 -0.09707614 -0.8393597
0.5322297 -0.1002242 -0.8406465
0.5295547 -0.1034015 -0.8419501
0.5268124 -0.1066109 -0.8432691
0.524002 -0.1098554 -0.8446027
0.5211229 -0.1131381 -0.8459496
0.5181741 -0.1164621 -0.8473088
0.5151547 -0.1198308 -0.8486791
0.5120633 -0.1232475 -0.8500595
0.5088988 -0.1267158 -0.8514489
0.5056595 -0.130239 -0.852846
0.502344 -0.133821 -0.8542497
0.4989503 -0.1374655 -0.8556587
0.4954765 -0.1411763 -0.8570719
0.4919205 -0.1449574 -0.858488
0.48828 -0.1488126 -0.8599055
0.4845526 -0.1527462 -0.8613231
0.4807355 -0.1567622 -0.8627393
0.4768259 -0.1608647 -0.8641525
0.4728208 -0.1650582 -0.8655613