# vtk DataFile Version 2.0
Written badly by Kevin Korner
ASCII
DATASET POLYDATA
POINTS 350 FLOAT
0 0 0
0.00286533 0 0
0.005730505 2.571152e-05 1.480918e-05
0.008595222 7.717639e-05 4.423029e-05
0.01145917 0.000154432 8.806513e-05
0.01432206 0.0002575115 0.0001461146
0.01718358 0.0003864434 0.0002181789
0.02004344 0.0005412524 0.0003040572
0.02290133 0.0007219587 0.0004035482
0.02575697 0.0009285783 0.0005164498
0.02861006 0.001161123 0.0006425594
0.03146032 0.001419601 0.0007816738
0.03430744 0.001704016 0.0009335892
0.03715116 0.002014368 0.001098102
0.03999118 0.002350653 0.001275006
0.04282723 0.002712863 0.001464098
0.04565902 0.003100987 0.001665173
0.04848628 0.003515008 0.001878024
0.05130873 0.003954907 0.002102446
0.05412611 0.004420663 0.002338234
0.05693813 0.004912248 0.00258518
0.05974454 0.005429632 0.002843081
0.06254506 0.005972782 0.003111728
0.06533944 0.006541661 0.003390917
0.06812741 0.007136229 0.003680441
0.07090871 0.007756441 0.003980095
0.0736831 0.008402251 0.004289673
0.0764503 0.009073608 0.004608968
0.07921009 0.00977046 0.004937777
0.08196219 0.01049275 0.005275894
0.08470638 0.01124042 0.005623113
0.08744239 0.0120134 0.005979232
0.09017 0.01281163 0.006344044
0.09288896 0.01363504 0.006717348
0.09559904 0.01448356 0.007098939
0.0983 0.01535712 0.007488615
0.1009916 0.01625564 0.007886173
0.1036736 0.01717903 0.008291412
0.1063458 0.01812722 0.00870413
0.109008 0.01910012 0.009124127
0.1116599 0.02009764 0.009551202
0.1143014 0.0211197 0.009985156
0.1169321 0.02216619 0.01042579
0.1195519 0.02323703 0.01087291
0.1221606 0.02433211 0.01132631
0.124758 0.02545135 0.0117858
0.1273438 0.02659462 0.01225118
0.1299179 0.02776184 0.01272226
0.13248 0.02895289 0.01319884
0.1350299 0.03016766 0.01368073
0.1375675 0.03140605 0.01416773
0.1400925 0.03266794 0.01465966
0.1426048 0.03395321 0.01515632
0.1451041 0.03526175 0.01565753
0.1475903 0.03659343 0.01616309
0.1500632 0.03794814 0.01667281
0.1525225 0.03932576 0.01718652
0.1549682 0.04072616 0.01770401
0.1574 0.0421492 0.01822512
0.1598177 0.04359477 0.01874964
0.1622211 0.04506274 0.0192774
0.1646102 0.04655296 0.01980822
0.1669847 0.04806531 0.02034191
0.1693444 0.04959966 0.0208783
0.1716891 0.05115586 0.0214172
0.1740188 0.05273377 0.02195844
0.1763332 0.05433326 0.02250184
0.1786322 0.05595418 0.02304722
0.1809156 0.0575964 0.02359441
0.1831832 0.05925976 0.02414323
0.1854349 0.06094412 0.02469352
0.1876705 0.06264934 0.02524509
0.18989 0.06437526 0.02579779
0.192093 0.06612173 0.02635143
0.1942795 0.0678886 0.02690586
0.1964494 0.06967572 0.02746089
0.1986024 0.07148294 0.02801638
0.2007385 0.07331009 0.02857215
0.2028574 0.07515703 0.02912804
0.2049591 0.07702359 0.02968388
0.2070434 0.07890962 0.03023952
0.2091102 0.08081495 0.03079479
0.2111593 0.08273943 0.03134954
0.2131905 0.08468288 0.03190361
0.2152039 0.08664515 0.03245684
0.2171991 0.08862607 0.03300908
0.2191762 0.09062548 0.03356016
0.2211349 0.0926432 0.03410995
0.2230752 0.09467908 0.03465828
0.2249969 0.09673293 0.03520501
0.2268999 0.09880459 0.03574998
0.228784 0.1008939 0.03629306
0.2306492 0.1030007 0.03683408
0.2324953 0.1051247 0.03737291
0.2343223 0.1072659 0.0379094
0.2361299 0.109424 0.03844341
0.2379181 0.1115989 0.0389748
0.2396867 0.1137904 0.03950342
0.2414357 0.1159983 0.04002914
0.2431649 0.1182224 0.04055182
0.2448743 0.1204625 0.04107132
0.2465637 0.1227186 0.0415875
0.2482329 0.1249903 0.04210024
0.249882 0.1272775 0.0426094
0.2515108 0.1295801 0.04311484
0.2531192 0.1318977 0.04361644
0.2547071 0.1342304 0.04411406
0.2562743 0.1365778 0.04460759
0.2578209 0.1389397 0.04509689
0.2593466 0.1413161 0.04558184
0.2608515 0.1437066 0.04606231
0.2623353 0.1461111 0.04653819
0.2637981 0.1485295 0.04700935
0.2652397 0.1509615 0.04747567
0.26666 0.1534069 0.04793703
0.2680589 0.1558655 0.04839332
0.2694364 0.1583372 0.04884443
0.2707923 0.1608217 0.04929023
0.2721266 0.1633189 0.04973061
0.2734392 0.1658285 0.05016547
0.2747299 0.1683504 0.05059469
0.2759988 0.1708843 0.05101817
0.2772457 0.1734301 0.0514358
0.2784706 0.1759875 0.05184748
0.2796733 0.1785563 0.05225309
0.2808538 0.1811364 0.05265254
0.2820121 0.1837276 0.05304573
0.2831479 0.1863295 0.05343256
0.2842614 0.1889421 0.05381293
0.2853523 0.1915652 0.05418674
0.2864206 0.1941984 0.05455391
0.2874663 0.1968417 0.05491433
0.2884893 0.1994947 0.05526792
0.2894895 0.2021573 0.05561458
0.2904668 0.2048293 0.05595424
0.2914212 0.2075105 0.0562868
0.2923526 0.2102006 0.05661217
0.2932609 0.2128995 0.05693029
0.2941461 0.2156069 0.05724105
0.2950082 0.2183225 0.0575444
0.295847 0.2210463 0.05784024
0.2966625 0.223778 0.05812851
0.2974547 0.2265173 0.05840912
0.2982235 0.229264 0.05868202
0.2989688 0.232018 0.05894712
0.2996906 0.234779 0.05920436
0.3003889 0.2375467 0.05945367
0.3010635 0.240321 0.05969499
0.3017145 0.2431016 0.05992826
0.3023417 0.2458884 0.06015341
0.3029453 0.248681 0.06037039
0.303525 0.2514793 0.06057914
0.3040809 0.254283 0.06077961
0.3046129 0.257092 0.06097175
0.305121 0.2599059 0.0611555
0.3056052 0.2627246 0.06133082
0.3060653 0.2655478 0.06149766
0.3065015 0.2683753 0.06165597
0.3069136 0.2712069 0.06180573
0.3073016 0.2740423 0.06194687
0.3076655 0.2768814 0.06207938
0.3080053 0.2797238 0.06220322
0.3083209 0.2825693 0.06231834
0.3086123 0.2854178 0.06242473
0.3088795 0.288269 0.06252235
0.3091225 0.2911226 0.06261118
0.3093412 0.2939785 0.06269119
0.3095357 0.2968363 0.06276237
0.3097059 0.2996959 0.06282469
0.3098518 0.302557 0.06287814
0.3099734 0.3054194 0.0629227
0.3100707 0.3082829 0.06295837
0.3101437 0.3111471 0.06298512
0.3101924 0.314012 0.06300296
0.3102167 0.3168772 0.06301189
0.3102167 0.3197426 0.06301189
0.3101924 0.3226078 0.06300296
0.3101437 0.3254726 0.06298512
0.3100707 0.3283369 0.06295837
0.3099734 0.3312004 0.0629227
0.3098518 0.3340628 0.06287814
0.3097059 0.3369239 0.06282469
0.3095357 0.3397835 0.06276237
0.3093412 0.3426413 0.06269119
0.3091225 0.3454971 0.06261118
0.3088795 0.3483508 0.06252235
0.3086123 0.3512019 0.06242473
0.3083209 0.3540504 0.06231834
0.3080053 0.356896 0.06220322
0.3076655 0.3597384 0.06207938
0.3073016 0.3625774 0.06194687
0.3069136 0.3654129 0.06180573
0.3065015 0.3682445 0.06165597
0.3060653 0.371072 0.06149766
0.3056052 0.3738952 0.06133082
0.305121 0.3767139 0.0611555
0.3046129 0.3795278 0.06097175
0.3040809 0.3823367 0.06077961
0.303525 0.3851405 0.06057914
0.3029453 0.3879388 0.06037039
0.3023417 0.3907314 0.06015341
0.3017145 0.3935181 0.05992826
0.3010635 0.3962988 0.05969499
0.3003889 0.3990731 0.05945367
0.2996906 0.4018408 0.05920436
0.2989688 0.4046018 0.05894712
0.2982235 0.4073557 0.05868202
0.2974547 0.4101025 0.05840912
0.2966625 0.4128418 0.05812851
0.295847 0.4155735 0.05784024
0.2950082 0.4182972 0.0575444
0.2941461 0.4210129 0.05724105
0.2932609 0.4237203 0.05693029
0.2923526 0.4264192 0.05661217
0.2914212 0.4291093 0.0562868
0.2904668 0.4317904 0.05595424
0.2894895 0.4344624 0.05561458
0.2884893 0.4371251 0.05526792
0.2874663 0.4397781 0.05491433
0.2864206 0.4424214 0.05455391
0.2853523 0.4450546 0.05418674
0.2842614 0.4476776 0.05381293
0.2831479 0.4502902 0.05343256
0.2820121 0.4528922 0.05304573
0.2808538 0.4554833 0.05265254
0.2796733 0.4580634 0.05225309
0.2784706 0.4606323 0.05184748
0.2772457 0.4631897 0.0514358
0.2759988 0.4657355 0.05101817
0.2747299 0.4682694 0.05059469
0.2734392 0.4707913 0.05016547
0.2721266 0.4733009 0.04973061
0.2707923 0.475798 0.04929023
0.2694364 0.4782826 0.04884443
0.2680589 0.4807542 0.04839332
0.26666 0.4832129 0.04793703
0.2652397 0.4856583 0.04747567
0.2637981 0.4880903 0.04700935
0.2623353 0.4905086 0.04653819
0.2608515 0.4929132 0.04606231
0.2593466 0.4953037 0.04558184
0.2578209 0.4976801 0.04509689
0.2562743 0.500042 0.04460759
0.2547071 0.5023894 0.04411406
0.2531192 0.504722 0.04361644
0.2515108 0.5070397 0.04311484
0.249882 0.5093423 0.0426094
0.2482329 0.5116295 0.04210024
0.2465637 0.5139012 0.0415875
0.2448743 0.5161572 0.04107132
0.2431649 0.5183974 0.04055182
0.2414357 0.5206215 0.04002914
0.2396867 0.5228294 0.03950342
0.2379181 0.5250209 0.0389748
0.2361299 0.5271958 0.03844341
0.2343223 0.5293539 0.0379094
0.2324953 0.531495 0.03737291
0.2306492 0.5336191 0.03683408
0.228784 0.5357259 0.03629306
0.2268999 0.5378152 0.03574998
0.2249969 0.5398868 0.03520501
0.2230752 0.5419407 0.03465828
0.2211349 0.5439766 0.03410995
0.2191762 0.5459943 0.03356016
0.2171991 0.5479937 0.03300908
0.2152039 0.5499746 0.03245684
0.2131905 0.5519369 0.03190361
0.2111593 0.5538803 0.03134954
0.2091102 0.5558048 0.03079479
0.2070434 0.5577102 0.03023952
0.2049591 0.5595962 0.02968388
0.2028574 0.5614627 0.02912804
0.2007385 0.5633097 0.02857215
0.1986024 0.5651368 0.02801638
0.1964494 0.5669441 0.02746089
0.1942795 0.5687312 0.02690586
0.192093 0.570498 0.02635143
0.18989 0.5722445 0.02579779
0.1876706 0.5739704 0.02524509
0.1854349 0.5756756 0.02469352
0.1831832 0.57736 0.02414323
0.1809156 0.5790234 0.02359441
0.1786322 0.5806656 0.02304722
0.1763332 0.5822865 0.02250184
0.1740188 0.583886 0.02195844
0.1716891 0.5854639 0.0214172
0.1693444 0.5870201 0.0208783
0.1669847 0.5885545 0.02034191
0.1646102 0.5900668 0.01980822
0.1622211 0.591557 0.0192774
0.1598177 0.593025 0.01874964
0.1574 0.5944706 0.01822512
0.1549682 0.5958936 0.01770401
0.1525225 0.597294 0.01718652
0.1500632 0.5986716 0.01667281
0.1475903 0.6000263 0.01616309
0.1451041 0.601358 0.01565753
0.1426048 0.6026666 0.01515632
0.1400925 0.6039518 0.01465966
0.1375675 0.6052137 0.01416773
0.1350299 0.6064521 0.01368073
0.13248 0.6076669 0.01319884
0.1299179 0.6088579 0.01272226
0.1273438 0.6100251 0.01225118
0.124758 0.6111684 0.0117858
0.1221606 0.6122877 0.01132631
0.1195519 0.6133827 0.01087291
0.1169321 0.6144536 0.01042579
0.1143014 0.6155001 0.009985156
0.1116599 0.6165221 0.009551202
0.109008 0.6175197 0.009124127
0.1063458 0.6184926 0.00870413
0.1036736 0.6194407 0.008291412
0.1009916 0.6203641 0.007886173
0.0983 0.6212627 0.007488615
0.09559904 0.6221362 0.007098939
0.09288896 0.6229847 0.006717348
0.09017 0.6238081 0.006344044
0.08744239 0.6246064 0.005979232
0.08470638 0.6253794 0.005623113
0.08196219 0.626127 0.005275894
0.07921009 0.6268493 0.004937777
0.0764503 0.6275462 0.004608968
0.0736831 0.6282175 0.004289673
0.07090871 0.6288633 0.003980095
0.06812741 0.6294835 0.003680441
0.06533944 0.6300781 0.003390917
0.06254506 0.630647 0.003111728
0.05974454 0.6311901 0.002843081
0.05693813 0.6317075 0.00258518
0.05412611 0.6321991 0.002338234
0.05130873 0.6326649 0.002102446
0.04848628 0.6331048 0.001878024
0.04565902 0.6335188 0.001665173
0.04282723 0.6339069 0.001464098
0.03999118 0.6342691 0.001275006
0.03715116 0.6346054 0.001098102
0.03430744 0.6349158 0.0009335892
0.03146032 0.6352002 0.0007816738
0.02861006 0.6354586 0.0006425594
0.02575697 0.6356912 0.0005164498
0.02290133 0.6358978 0.0004035482
0.02004344 0.6360785 0.0003040572
0.01718358 0.6362333 0.0002181789
0.01432206 0.6363623 0.0001461146
0.01145917 0.6364653 8.806513e-05
0.008595222 0.6365426 4.423029e-05
0.005730505 0.6365941 1.480918e-05
0.00286533 0.6366198 0
0 0.6366198 0

LINES 349 1047
2 0 1
2 1 2
2 2 3
2 3 4
2 4 5
2 5 6
2 6 7
2 7 8
2 8 9
2 9 10
2 10 11
2 11 12
2 12 13
2 13 14
2 14 15
2 15 16
2 16 17
2 17 18
2 18 19
2 19 20
2 20 21
2 21 22
2 22 23
2 23 24
2 24 25
2 25 26
2 26 27
2 27 28
2 28 29
2 29 30
2 30 31
2 31 32
2 32 33
2 33 34
2 34 35
2 35 36
2 36 37
2 37 38
2 38 39
2 39 40
2 40 41
2 41 42
2 42 43
2 43 44
2 44 45
2 45 46
2 46 47
2 47 48
2 48 49
2 49 50
2 50 51
2 51 52
2 52 53
2 53 54
2 54 55
2 55 56
2 56 57
2 57 58
2 58 59
2 59 60
2 60 61
2 61 62
2 62 63
2 63 64
2 64 65
2 65 66
2 66 67
2 67 68
2 68 69
2 69 70
2 70 71
2 71 72
2 72 73
2 73 74
2 74 75
2 75 76
2 76 77
2 77 78
2 78 79
2 79 80
2 80 81
2 81 82
2 82 83
2 83 84
2 84 85
2 85 86
2 86 87
2 87 88
2 88 89
2 89 90
2 90 91
2 91 92
2 92 93
2 93 94
2 94 95
2 95 96
2 96 97
2 97 98
2 98 99
2 99 100
2 100 101
2 101 102
2 102 103
2 103 104
2 104 105
2 105 106
2 106 107
2 107 108
2 108 109
2 109 110
2 110 111
2 111 112
2 112 113
2 113 114
2 114 115
2 115 116
2 116 117
2 117 118
2 118 119
2 119 120
2 120 121
2 121 122
2 122 123
2 123 124
2 124 125
2 125 126
2 126 127
2 127 128
2 128 129
2 129 130
2 130 131
2 131 132
2 132 133
2 133 134
2 134 135
2 135 136
2 136 137
2 137 138
2 138 139
2 139 140
2 140 141
2 141 142
2 142 143
2 143 144
2 144 145
2 145 146
2 146 147
2 147 148
2 148 149
2 149 150
2 150 151
2 151 152
2 152 153
2 153 154
2 154 155
2 155 156
2 156 157
2 157 158
2 158 159
2 159 160
2 160 161
2 161 162
2 162 163
2 163 164
2 164 165
2 165 166
2 166 167
2 167 168
2 168 169
2 169 170
2 170 171
2 171 172
2 172 173
2 173 174
2 174 175
2 175 176
2 176 177
2 177 178
2 178 179
2 179 180
2 180 181
2 181 182
2 182 183
2 183 184
2 184 185
2 185 186
2 186 187
2 187 188
2 188 189
2 189 190
2 190 191
2 191 192
2 192 193
2 193 194
2 194 195
2 195 196
2 196 197
2 197 198
2 198 199
2 199 200
2 200 201
2 201 202
2 202 203
2 203 204
2 204 205
2 205 206
2 206 207
2 207 208
2 208 209
2 209 210
2 210 211
2 211 212
2 212 213
2 213 214
2 214 215
2 215 216
2 216 217
2 217 218
2 218 219
2 219 220
2 220 221
2 221 222
2 222 223
2 223 224
2 224 225
2 225 226
2 226 227
2 227 228
2 228 229
2 229 230
2 230 231
2 231 232
2 232 233
2 233 234
2 234 235
2 235 236
2 236 237
2 237 238
2 238 239
2 239 240
2 240 241
2 241 242
2 242 243
2 243 244
2 244 245
2 245 246
2 246 247
2 247 248
2 248 249
2 249 250
2 250 251
2 251 252
2 252 253
2 253 254
2 254 255
2 255 256
2 256 257
2 257 258
2 258 259
2 259 260
2 260 261
2 261 262
2 262 263
2 263 264
2 264 265
2 265 266
2 266 267
2 267 268
2 268 269
2 269 270
2 270 271
2 271 272
2 272 273
2 273 274
2 274 275
2 275 276
2 276 277
2 277 278
2 278 279
2 279 280
2 280 281
2 281 282
2 282 283
2 283 284
2 284 285
2 285 286
2 286 287
2 287 288
2 288 289
2 289 290
2 290 291
2 291 292
2 292 293
2 293 294
2 294 295
2 295 296
2 296 297
2 297 298
2 298 299
2 299 300
2 300 301
2 301 302
2 302 303
2 303 304
2 304 305
2 305 306
2 306 307
2 307 308
2 308 309
2 309 310
2 310 311
2 311 312
2 312 313
2 313 314
2 314 315
2 315 316
2 316 317
2 317 318
2 318 319
2 319 320
2 320 321
2 321 322
2 322 323
2 323 324
2 324 325
2 325 326
2 326 327
2 327 328
2 328 329
2 329 330
2 330 331
2 331 332
2 332 333
2 333 334
2 334 335
2 335 336
2 336 337
2 337 338
2 338 339
2 339 340
2 340 341
2 341 342
2 342 343
2 343 344
2 344 345
2 345 346
2 346 347
2 347 348
2 348 349


POINT_DATA 350
SCALARS a FLOAT 1
LOOKUP_TABLE default
0.0005894628
0.0005894628
0.0005894628
0.0005894628
0.0005894628
0.0005894628
0.0005894628
0.0005894628
0.0005894628
0.0005894628
0.0005894628
0.0005894628
0.0005894628
0.0005894628
0.0005894628
0.0005894628
0.0005894628
0.0005894628
0.0005894628
0.0005894628
0.0005894628
0.0005894628
0.0005894628
0.0005894628
0.0005894628
0.0005894628
0.0005894628
0.0005894628
0.0005894628
0.0005894628
0.0005894628
0.0005894628
0.0005894628
0.0005894628
0.0005894628
0.0005894628
0.0005894628
0.0005894628
0.0005894628
0.0005894628
0.0005894628
0.0005894628
0.0005894628
0.0005894628
0.0005894628
0.0005894628
0.0005894628
0.0005894628
0.0005894628
0.0005894628
0.0005894628
0.0005894628
0.0005894628
0.0005894628
0.0005894628
0.0005894628
0.0005894628
0.0005894628
0.0005894628
0.0005894628
0.0005894628
0.0005894628
0.0005894628
0.0005894628
0.0005894628
0.0005894628
0.0005894628
0.0005894628
0.0005894628
0.0005894628
0.0005894628
0.0005894628
0.0005894628
0.0005894628
0.0005894628
0.0005894628
0.0005894628
0.0005894628
0.0005894628
0.0005894628
0.0005894628
0.0005894628
0.0005894628
0.0005894628
0.0005894628
0.0005894628
0.0005894628
0.0005894628
0.0005894628
0.0005894628
0.0005894628
0.0005894628
0.0005894628
0.0005894628
0.0005894628
0.0005894628
0.0005894628
0.0005894628
0.0005894628
0.0005894628
0.0005894628
0.0005894628
0.0005894628
0.0005894628
0.0005894628
0.0005894628
0.0005894628
0.0005894628
0.0005894628
0.0005894628
0.0005894628
0.0005894628
0.0005894628
0.0005894628
0.0005894628
0.0005894628
0.0005894628
0.0005894628
0.0005894628
0.0005894628
0.0005894628
0.0005894628
0.0005894628
0.0005894628
0.0005894628
0.0005894628
0.0005894628
0.0005894628
0.0005894628
0.0005894628
0.0005894628
0.0005894628
0.0005894628
0.0005894628
0.0005894628
0.0005894628
0.0005894628
0.0005894628
0.0005894628
0.0005894628
0.0005894628
0.0005894628
0.0005894628
0.0005894628
0.0005894628
0.0005894628
0.0005894628
0.0005894628
0.0005894628
0.0005894628
0.0005894628
0.0005894628
0.0005894628
0.0005894628
0.0005894628
0.0005894628
0.0005894628
0.0005894628
0.0005894628
0.0005894628
0.0005894628
0.0005894628
0.0005894628
0.0005894628
0.0005894628
0.0005894628
0.0005894628
0.0005894628
0.0005894628
0.0005894628
0.0005894628
0.0005894628
0.0005894628
0.0005894628
0.0005894628
0.0005894628
0.0005894628
0.0005894628
0.0005894628
0.0005894628
0.0005894628
0.0005894628
0.0005894628
0.0005894628
0.0005894628
0.0005894628
0.0005894628
0.0005894628
0.0005894628
0.0005894628
0.0005894628
0.0005894628
0.0005894628
0.0005894628
0.0005894628
0.0005894628
0.0005894628
0.0005894628
0.0005894628
0.0005894628
0.0005894628
0.0005894628
0.0005894628
0.0005894628
0.0005894628
0.0005894628
0.0005894628
0.0005894628
0.0005894628
0.0005894628
0.0005894628
0.0005894628
0.0005894628
0.0005894628
0.0005894628
0.0005894628
0.0005894628
0.0005894628
0.0005894628
0.0005894628
0.0005894628
0.0005894628
0.0005894628
0.0005894628
0.0005894628
0.0005894628
0.0005894628
0.0005894628
0.0005894628
0.0005894628
0.0005894628
0.0005894628
0.0005894628
0.0005894628
0.0005894628
0.0005894628
0.0005894628
0.0005894628
0.0005894628
0.0005894628
0.0005894628
0.0005894628
0.0005894628
0.0005894628
0.0005894628
0.0005894628
0.0005894628
0.0005894628
0.0005894628
0.0005894628
0.0005894628
0.0005894628
0.0005894628
0.0005894628
0.0005894628
0.0005894628
0.0005894628
0.0005894628
0.0005894628
0.0005894628
0.0005894628
0.0005894628
0.0005894628
0.0005894628
0.0005894628
0.0005894628
0.0005894628
0.0005894628
0.0005894628
0.0005894628
0.0005894628
0.0005894628
0.0005894628
0.0005894628
0.0005894628
0.0005894628
0.0005894628
0.0005894628
0.0005894628
0.0005894628
0.0005894628
0.0005894628
0.0005894628
0.0005894628
0.0005894628
0.0005894628
0.0005894628
0.0005894628
0.0005894628
0.0005894628
0.0005894628
0.0005894628
0.0005894628
0.0005894628
0.0005894628
0.0005894628
0.0005894628
0.0005894628
0.0005894628
0.0005894628
0.0005894628
0.0005894628
0.0005894628
0.0005894628
0.0005894628
0.0005894628
0.0005894628
0.0005894628
0.0005894628
0.0005894628
0.0005894628
0.0005894628
0.0005894628
0.0005894628
0.0005894628
0.0005894628
0.0005894628
0.0005894628
0.0005894628
0.0005894628
0.0005894628
0.0005894628
0.0005894628
0.0005894628
0.0005894628
0.0005894628
0.0005894628
0.0005894628
0.0005894628
0.0005894628
0.0005894628
0.0005894628
0.0005894628
0.0005894628
0.0005894628
0.0005894628
0.0005894628
0.0005894628
0.0005894628
0.0005894628
0.0005894628
0.0005894628
0.0005894628
0.0005894628
0.0005894628
0.0005894628
0.0005894628
0.0005894628
0.0005894628
0.0005894628


SCALARS b FLOAT 1
LOOKUP_TABLE default
0.04420971
0.04420971
0.04420971
0.04420971
0.04420971
0.04420971
0.04420971
0.04420971
0.04420971
0.04420971
0.04420971
0.04420971
0.04420971
0.04420971
0.04420971
0.04420971
0.04420971
0.04420971
0.04420971
0.04420971
0.04420971
0.04420971
0.04420971
0.04420971
0.04420971
0.04420971
0.04420971
0.04420971
0.04420971
0.04420971
0.04420971
0.04420971
0.04420971
0.04420971
0.04420971
0.04420971
0.04420971
0.04420971
0.04420971
0.04420971
0.04420971
0.04420971
0.04420971
0.04420971
0.04420971
0.04420971
0.04420971
0.04420971
0.04420971
0.04420971
0.04420971
0.04420971
0.04420971
0.04420971
0.04420971
0.04420971
0.04420971
0.04420971
0.04420971
0.04420971
0.04420971
0.04420971
0.04420971
0.04420971
0.04420971
0.04420971
0.04420971
0.04420971
0.04420971
0.04420971
0.04420971
0.04420971
0.04420971
0.04420971
0.04420971
0.04420971
0.04420971
0.04420971
0.04420971
0.04420971
0.04420971
0.04420971
0.04420971
0.04420971
0.04420971
0.04420971
0.04420971
0.04420971
0.04420971
0.04420971
0.04420971
0.04420971
0.04420971
0.04420971
0.04420971
0.04420971
0.04420971
0.04420971
0.04420971
0.04420971
0.04420971
0.04420971
0.04420971
0.04420971
0.04420971
0.04420971
0.04420971
0.04420971
0.04420971
0.04420971
0.04420971
0.04420971
0.04420971
0.04420971
0.04420971
0.04420971
0.04420971
0.04420971
0.04420971
0.04420971
0.04420971
0.04420971
0.04420971
0.04420971
0.04420971
0.04420971
0.04420971
0.04420971
0.04420971
0.04420971
0.04420971
0.04420971
0.04420971
0.04420971
0.04420971
0.04420971
0.04420971
0.04420971
0.04420971
0.04420971
0.04420971
0.04420971
0.04420971
0.04420971
0.04420971
0.04420971
0.04420971
0.04420971
0.04420971
0.04420971
0.04420971
0.04420971
0.04420971
0.04420971
0.04420971
0.04420971
0.04420971
0.04420971
0.04420971
0.04420971
0.04420971
0.04420971
0.04420971
0.04420971
0.04420971
0.04420971
0.04420971
0.04420971
0.04420971
0.04420971
0.04420971
0.04420971
0.04420971
0.04420971
0.04420971
0.04420971
0.04420971
0.04420971
0.04420971
0.04420971
0.04420971
0.04420971
0.04420971
0.04420971
0.04420971
0.04420971
0.04420971
0.04420971
0.04420971
0.04420971
0.04420971
0.04420971
0.04420971
0.04420971
0.04420971
0.04420971
0.04420971
0.04420971
0.04420971
0.04420971
0.04420971
0.04420971
0.04420971
0.04420971
0.04420971
0.04420971
0.04420971
0.04420971
0.04420971
0.04420971
0.04420971
0.04420971
0.04420971
0.04420971
0.04420971
0.04420971
0.04420971
0.04420971
0.04420971
0.04420971
0.04420971
0.04420971
0.04420971
0.04420971
0.04420971
0.04420971
0.04420971
0.04420971
0.04420971
0.04420971
0.04420971
0.04420971
0.04420971
0.04420971
0.04420971
0.04420971
0.04420971
0.04420971
0.04420971
0.04420971
0.04420971
0.04420971
0.04420971
0.04420971
0.04420971
0.04420971
0.04420971
0.04420971
0.04420971
0.04420971
0.04420971
0.04420971
0.04420971
0.04420971
0.04420971
0.04420971
0.04420971
0.04420971
0.04420971
0.04420971
0.04420971
0.04420971
0.04420971
0.04420971
0.04420971
0.04420971
0.04420971
0.04420971
0.04420971
0.04420971
0.04420971
0.04420971
0.04420971
0.04420971
0.04420971
0.04420971
0.04420971
0.04420971
0.04420971
0.04420971
0.04420971
0.04420971
0.04420971
0.04420971
0.04420971
0.04420971
0.04420971
0.04420971
0.04420971
0.04420971
0.04420971
0.04420971
0.04420971
0.04420971
0.04420971
0.04420971
0.04420971
0.04420971
0.04420971
0.04420971
0.04420971
0.04420971
0.04420971
0.04420971
0.04420971
0.04420971
0.04420971
0.04420971
0.04420971
0.04420971
0.04420971
0.04420971
0.04420971
0.04420971
0.04420971
0.04420971
0.04420971
0.04420971
0.04420971
0.04420971
0.04420971
0.04420971
0.04420971
0.04420971
0.04420971
0.04420971
0.04420971
0.04420971
0.04420971
0.04420971
0.04420971
0.04420971
0.04420971
0.04420971
0.04420971
0.04420971
0.04420971
0.04420971
0.04420971
0.04420971
0.04420971
0.04420971
0.04420971
0.04420971
0.04420971
0.04420971
0.04420971
0.04420971
0.04420971
0.04420971


VECTORS d1 FLOAT
0 0.8648712 0.5019939
-0.01035528 0.8680624 0.4963471
-0.02068864 0.8711145 0.4906441
-0.03099858 0.8740277 0.4848863
-0.04128364 0.8768025 0.4790752
-0.05154238 0.8794393 0.4732123
-0.06177336 0.8819386 0.4672991
-0.07197521 0.8843007 0.461337
-0.08214655 0.8865262 0.4553275
-0.09228605 0.8886157 0.4492721
-0.1023924 0.8905695 0.4431723
-0.1124643 0.8923884 0.4370294
-0.1225004 0.8940728 0.430845
-0.1324996 0.8956234 0.4246204
-0.1424607 0.8970408 0.4183572
-0.1523824 0.8983256 0.4120567
-0.1622636 0.8994785 0.4057203
-0.1721031 0.9005001 0.3993495
-0.1818998 0.9013912 0.3929457
-0.1916528 0.9021525 0.3865102
-0.2013608 0.9027846 0.3800445
-0.2110229 0.9032884 0.3735499
-0.220638 0.9036645 0.3670278
-0.2302052 0.9039138 0.3604795
-0.2397235 0.904037 0.3539065
-0.249192 0.9040349 0.34731
-0.2586097 0.9039084 0.3406914
-0.2679759 0.9036582 0.334052
-0.2772895 0.9032853 0.3273931
-0.2865499 0.9027904 0.320716
-0.2957561 0.9021743 0.314022
-0.3049073 0.9014381 0.3073124
-0.3140029 0.9005824 0.3005885
-0.3230421 0.8996083 0.2938515
-0.3320241 0.8985166 0.2871026
-0.3409483 0.8973082 0.2803431
-0.349814 0.895984 0.2735743
-0.3586204 0.8945449 0.2667973
-0.3673671 0.8929919 0.2600133
-0.3760534 0.8913258 0.2532236
-0.3846786 0.8895476 0.2464293
-0.3932423 0.8876583 0.2396316
-0.4017439 0.8856587 0.2328316
-0.4101828 0.8835498 0.2260305
-0.4185586 0.8813326 0.2192295
-0.4268708 0.879008 0.2124296
-0.4351189 0.8765769 0.2056319
-0.4433024 0.8740404 0.1988377
-0.451421 0.8713993 0.1920479
-0.4594742 0.8686546 0.1852636
-0.4674616 0.8658074 0.178486
-0.475383 0.8628584 0.171716
-0.4832378 0.8598088 0.1649548
-0.4910258 0.8566594 0.1582033
-0.4987467 0.8534113 0.1514626
-0.5064002 0.8500653 0.1447336
-0.5139859 0.8466225 0.1380175
-0.5215037 0.8430838 0.1313152
-0.5289532 0.8394501 0.1246276
-0.5363343 0.8357224 0.1179558
-0.5436466 0.8319017 0.1113007
-0.5508901 0.8279889 0.1046633
-0.5580645 0.823985 0.09804447
-0.5651696 0.8198909 0.09144518
-0.5722053 0.8157075 0.08486635
-0.5791715 0.8114358 0.07830889
-0.586068 0.8070768 0.07177371
-0.5928946 0.8026312 0.06526171
-0.5996513 0.7981002 0.05877376
-0.606338 0.7934846 0.05231075
-0.6129546 0.7887853 0.04587353
-0.619501 0.7840033 0.03946298
-0.6259773 0.7791394 0.03307994
-0.6323832 0.7741946 0.02672526
-0.6387188 0.7691697 0.02039976
-0.6449841 0.7640658 0.01410427
-0.6511791 0.7588836 0.007839617
-0.6573037 0.7536241 0.001606604
-0.663358 0.7482881 -0.004593964
-0.669342 0.7428765 -0.01076129
-0.6752557 0.7373902 -0.01689459
-0.6810991 0.7318301 -0.02299307
-0.6868723 0.726197 -0.02905597
-0.6925754 0.7204919 -0.03508252
-0.6982084 0.7147154 -0.04107195
-0.7037713 0.7088686 -0.0470235
-0.7092644 0.7029522 -0.05293643
-0.7146875 0.6969671 -0.05881
-0.720041 0.6909141 -0.06464346
-0.7253247 0.684794 -0.07043608
-0.7305389 0.6786077 -0.07618713
-0.7356837 0.6723559 -0.08189589
-0.7407592 0.6660396 -0.08756165
-0.7457655 0.6596595 -0.09318368
-0.7507028 0.6532163 -0.09876128
-0.7555711 0.646711 -0.1042937
-0.7603707 0.6401443 -0.1097804
-0.7651017 0.6335169 -0.1152205
-0.7697642 0.6268297 -0.1206134
-0.7743585 0.6200835 -0.1259583
-0.7788846 0.6132789 -0.1312547
-0.7833428 0.6064169 -0.1365018
-0.7877331 0.5994981 -0.1416989
-0.7920559 0.5925233 -0.1468454
-0.7963113 0.5854932 -0.1519406
-0.8004995 0.5784087 -0.1569838
-0.8046206 0.5712705 -0.1619743
-0.8086749 0.5640793 -0.1669116
-0.8126625 0.5568358 -0.1717949
-0.8165837 0.5495409 -0.1766235
-0.8204387 0.5421951 -0.1813969
-0.8242276 0.5347994 -0.1861143
-0.8279507 0.5273543 -0.1907751
-0.8316081 0.5198606 -0.1953786
-0.8352002 0.5123191 -0.1999243
-0.8387271 0.5047305 -0.2044114
-0.842189 0.4970955 -0.2088393
-0.8455861 0.4894147 -0.2132074
-0.8489187 0.481689 -0.217515
-0.8521869 0.4739191 -0.2217615
-0.8553911 0.4661056 -0.2259462
-0.8585314 0.4582492 -0.2300685
-0.861608 0.4503508 -0.2341278
-0.8646212 0.442411 -0.2381234
-0.8675712 0.4344304 -0.2420547
-0.8704581 0.42641 -0.2459211
-0.8732824 0.4183502 -0.2497219
-0.876044 0.4102519 -0.2534566
-0.8787434 0.4021158 -0.2571244
-0.8813806 0.3939426 -0.2607249
-0.883956 0.385733 -0.2642573
-0.8864697 0.3774877 -0.267721
-0.888922 0.3692074 -0.2711155
-0.891313 0.360893 -0.2744402
-0.893643 0.352545 -0.2776944
-0.8959123 0.3441643 -0.2808775
-0.8981209 0.3357515 -0.2839889
-0.9002692 0.3273074 -0.2870281
-0.9023574 0.3188328 -0.2899945
-0.9043855 0.3103284 -0.2928875
-0.906354 0.3017948 -0.2957065
-0.9082629 0.293233 -0.298451
-0.9101124 0.2846435 -0.3011203
-0.9119028 0.2760273 -0.303714
-0.9136342 0.267385 -0.3062316
-0.9153069 0.2587175 -0.3086723
-0.9169209 0.2500254 -0.3110359
-0.9184766 0.2413096 -0.3133216
-0.919974 0.2325709 -0.3155291
-0.9214134 0.22381 -0.3176578
-0.9227948 0.2150277 -0.3197073
-0.9241186 0.2062249 -0.321677
-0.9253848 0.1974023 -0.3235666
-0.9265935 0.1885608 -0.3253755
-0.927745 0.1797011 -0.3271034
-0.9288394 0.1708241 -0.3287498
-0.9298768 0.1619307 -0.3303143
-0.9308574 0.1530216 -0.3317965
-0.9317812 0.1440977 -0.3331962
-0.9326484 0.1351598 -0.3345128
-0.9334591 0.1262087 -0.3357461
-0.9342134 0.1172454 -0.3368957
-0.9349115 0.1082707 -0.3379615
-0.9355533 0.09928541 -0.338943
-0.9361391 0.09029043 -0.3398401
-0.9366688 0.08128663 -0.3406524
-0.9371426 0.07227487 -0.3413798
-0.9375604 0.06325603 -0.3420221
-0.9379225 0.05423099 -0.3425791
-0.9382287 0.04520063 -0.3430507
-0.9384792 0.03616583 -0.3434367
-0.938674 0.02712749 -0.3437371
-0.9388131 0.01808647 -0.3439517
-0.9388966 0.009043682 -0.3440804
-0.9389244 1.870702e-09 -0.3441234
-0.9388966 -0.009043678 -0.3440804
-0.9388131 -0.01808647 -0.3439517
-0.938674 -0.02712748 -0.3437371
-0.9384792 -0.03616583 -0.3434367
-0.9382287 -0.04520063 -0.3430507
-0.9379225 -0.05423099 -0.3425791
-0.9375604 -0.06325603 -0.3420221
-0.9371426 -0.07227486 -0.3413798
-0.9366688 -0.08128662 -0.3406524
-0.9361391 -0.09029043 -0.3398401
-0.9355533 -0.09928541 -0.338943
-0.9349115 -0.1082707 -0.3379615
-0.9342134 -0.1172454 -0.3368957
-0.9334591 -0.1262087 -0.3357461
-0.9326484 -0.1351597 -0.3345128
-0.9317812 -0.1440976 -0.3331962
-0.9308574 -0.1530216 -0.3317965
-0.9298768 -0.1619307 -0.3303143
-0.9288394 -0.1708241 -0.3287498
-0.927745 -0.1797011 -0.3271034
-0.9265935 -0.1885608 -0.3253755
-0.9253848 -0.1974023 -0.3235666
-0.9241186 -0.2062249 -0.321677
-0.9227948 -0.2150277 -0.3197073
-0.9214134 -0.22381 -0.3176578
-0.919974 -0.2325709 -0.3155291
-0.9184766 -0.2413096 -0.3133216
-0.9169209 -0.2500254 -0.3110359
-0.9153069 -0.2587175 -0.3086723
-0.9136342 -0.267385 -0.3062316
-0.9119028 -0.2760273 -0.303714
-0.9101124 -0.2846435 -0.3011203
-0.9082629 -0.293233 -0.298451
-0.906354 -0.3017948 -0.2957065
-0.9043855 -0.3103284 -0.2928875
-0.9023574 -0.3188328 -0.2899945
-0.9002692 -0.3273074 -0.2870281
-0.8981209 -0.3357515 -0.2839889
-0.8959123 -0.3441643 -0.2808775
-0.893643 -0.352545 -0.2776944
-0.891313 -0.360893 -0.2744402
-0.888922 -0.3692074 -0.2711155
-0.8864697 -0.3774877 -0.267721
-0.883956 -0.385733 -0.2642573
-0.8813806 -0.3939426 -0.2607249
-0.8787434 -0.4021158 -0.2571244
-0.876044 -0.4102519 -0.2534566
-0.8732824 -0.4183502 -0.2497219
-0.8704581 -0.42641 -0.2459211