# vtk DataFile Version 2.0
Written badly by Kevin Korner
ASCII
DATASET POLYDATA
POINTS 350 FLOAT
0 0 0
0.00286533 0 0
0.005730497 2.276867e-05 -2.023373e-05
0.008595179 6.851247e-05 -6.048415e-05
0.01145905 0.0001374303 -0.000120529
0.01432179 0.0002297134 -0.000200141
0.01718306 0.0003455455 -0.0002990879
0.02004256 0.0004851025 -0.0004171327
0.02289994 0.000648553 -0.0005540341
0.0257549 0.0008360574 -0.0007095462
0.0286071 0.001047769 -0.0008834191
0.03145623 0.001283833 -0.001075399
0.03430196 0.001544388 -0.001285227
0.03714398 0.001829563 -0.001512643
0.03998197 0.002139481 -0.001757381
0.0428156 0.002474257 -0.002019173
0.04564458 0.002833999 -0.002297748
0.04846858 0.003218806 -0.002592831
0.05128729 0.003628772 -0.002904145
0.0541004 0.004063981 -0.003231411
0.05690761 0.004524512 -0.003574345
0.05970861 0.005010435 -0.003932663
0.0625031 0.005521813 -0.004306079
0.06529077 0.006058704 -0.004694303
0.06807134 0.006621155 -0.005097046
0.07084451 0.00720921 -0.005514015
0.07360997 0.007822904 -0.005944916
0.07636746 0.008462265 -0.006389454
0.07911667 0.009127316 -0.006847333
0.08185733 0.009818072 -0.007318256
0.08458915 0.01053454 -0.007801925
0.08731186 0.01127673 -0.00829804
0.09002518 0.01204462 -0.008806302
0.09272885 0.01283822 -0.009326411
0.09542259 0.0136575 -0.009858066
0.09810614 0.01450245 -0.01040097
0.1007792 0.01537302 -0.01095481
0.1034416 0.0162692 -0.0115193
0.1060931 0.01719094 -0.01209413
0.1087333 0.01813819 -0.01267901
0.111362 0.0191109 -0.01327363
0.1139791 0.02010902 -0.01387769
0.1165842 0.02113248 -0.0144909
0.1191771 0.02218122 -0.01511295
0.1217577 0.02325516 -0.01574355
0.1243255 0.02435423 -0.01638241
0.1268806 0.02547835 -0.01702922
0.1294225 0.02662743 -0.01768369
0.1319511 0.02780137 -0.01834553
0.1344662 0.02900008 -0.01901445
0.1369676 0.03022347 -0.01969016
0.139455 0.03147142 -0.02037236
0.1419283 0.03274384 -0.02106078
0.1443873 0.03404059 -0.02175511
0.1468317 0.03536158 -0.02245509
0.1492614 0.03670667 -0.02316042
0.1516761 0.03807575 -0.02387083
0.1540758 0.03946868 -0.02458603
0.1564601 0.04088534 -0.02530575
0.158829 0.04232559 -0.02602972
0.1611823 0.04378929 -0.02675765
0.1635197 0.04527629 -0.02748928
0.1658412 0.04678646 -0.02822435
0.1681465 0.04831965 -0.02896257
0.1704355 0.04987571 -0.0297037
0.172708 0.05145448 -0.03044746
0.174964 0.0530558 -0.03119359
0.1772031 0.05467952 -0.03194184
0.1794253 0.05632548 -0.03269196
0.1816305 0.05799351 -0.03344368
0.1838184 0.05968345 -0.03419676
0.185989 0.06139512 -0.03495095
0.1881421 0.06312836 -0.035706
0.1902776 0.06488299 -0.03646167
0.1923954 0.06665884 -0.03721772
0.1944952 0.06845573 -0.03797391
0.1965771 0.07027349 -0.03873001
0.1986409 0.07211192 -0.03948577
0.2006864 0.07397086 -0.04024098
0.2027136 0.0758501 -0.0409954
0.2047223 0.07774948 -0.04174881
0.2067124 0.07966879 -0.04250098
0.2086838 0.08160786 -0.0432517
0.2106365 0.08356649 -0.04400074
0.2125702 0.08554449 -0.04474789
0.214485 0.08754166 -0.04549294
0.2163806 0.08955782 -0.04623568
0.2182571 0.09159276 -0.0469759
0.2201143 0.09364629 -0.0477134
0.2219522 0.09571821 -0.04844797
0.2237705 0.09780833 -0.04917942
0.2255694 0.09991644 -0.04990755
0.2273486 0.1020423 -0.05063216
0.2291081 0.1041858 -0.05135307
0.2308478 0.1063467 -0.05207008
0.2325677 0.1085248 -0.05278301
0.2342676 0.1107198 -0.05349168
0.2359475 0.1129316 -0.0541959
0.2376073 0.11516 -0.0548955
0.2392469 0.1174048 -0.0555903
0.2408663 0.1196657 -0.05628012
0.2424655 0.1219426 -0.05696481
0.2440443 0.1242352 -0.05764418
0.2456026 0.1265433 -0.05831808
0.2471405 0.1288667 -0.05898634
0.2486578 0.1312053 -0.0596488
0.2501546 0.1335588 -0.0603053
0.2516307 0.135927 -0.0609557
0.2530861 0.1383096 -0.06159982
0.2545207 0.1407066 -0.06223754
0.2559345 0.1431175 -0.06286869
0.2573275 0.1455424 -0.06349313
0.2586995 0.1479809 -0.06411072
0.2600506 0.1504328 -0.06472133
0.2613807 0.1528979 -0.0653248
0.2626898 0.155376 -0.06592101
0.2639777 0.1578669 -0.06650983
0.2652445 0.1603704 -0.06709112
0.2664902 0.1628862 -0.06766475
0.2677146 0.1654142 -0.06823061
0.2689178 0.1679541 -0.06878856
0.2700997 0.1705057 -0.06933848
0.2712602 0.1730689 -0.06988027
0.2723994 0.1756433 -0.07041379
0.2735172 0.1782288 -0.07093894
0.2746136 0.1808252 -0.07145561
0.2756885 0.1834322 -0.07196368
0.2767419 0.1860497 -0.07246306
0.2777738 0.1886774 -0.07295363
0.2787841 0.191315 -0.07343529
0.2797729 0.1939625 -0.07390794
0.28074 0.1966195 -0.0743715
0.2816855 0.1992859 -0.07482585
0.2826094 0.2019615 -0.07527091
0.2835115 0.204646 -0.07570659
0.284392 0.2073391 -0.0761328
0.2852507 0.2100408 -0.07654945
0.2860877 0.2127508 -0.07695645
0.2869028 0.2154688 -0.07735374
0.2876962 0.2181947 -0.07774122
0.2884678 0.2209283 -0.07811882
0.2892175 0.2236692 -0.07848647
0.2899454 0.2264174 -0.07884408
0.2906514 0.2291726 -0.0791916
0.2913355 0.2319345 -0.07952895
0.2919977 0.234703 -0.07985607
0.2926379 0.2374779 -0.08017289
0.2932562 0.2402588 -0.08047936
0.2938526 0.2430458 -0.0807754
0.294427 0.2458384 -0.08106096
0.2949794 0.2486364 -0.081336
0.2955098 0.2514398 -0.08160044
0.2960182 0.2542482 -0.08185426
0.2965046 0.2570615 -0.08209738
0.296969 0.2598794 -0.08232978
0.2974113 0.2627017 -0.08255139
0.2978315 0.2655282 -0.08276219
0.2982297 0.2683586 -0.08296213
0.2986058 0.2711929 -0.08315117
0.2989598 0.2740307 -0.08332928
0.2992918 0.2768718 -0.08349642
0.2996016 0.279716 -0.08365256
0.2998894 0.2825632 -0.08379767
0.300155 0.285413 -0.08393173
0.3003985 0.2882653 -0.0840547
0.3006199 0.2911199 -0.08416657
0.3008192 0.2939765 -0.08426731
0.3009963 0.296835 -0.0843569
0.3011514 0.299695 -0.08443533
0.3012842 0.3025565 -0.08450259
0.301395 0.3054191 -0.08455866
0.3014835 0.3082827 -0.08460352
0.30155 0.3111471 -0.08463718
0.3015943 0.314012 -0.08465962
0.3016164 0.3168772 -0.08467084
0.3016164 0.3197426 -0.08467084
0.3015943 0.3226078 -0.08465962
0.30155 0.3254727 -0.08463718
0.3014835 0.328337 -0.08460352
0.301395 0.3312006 -0.08455866
0.3012842 0.3340633 -0.08450259
0.3011514 0.3369247 -0.08443533
0.3009963 0.3397848 -0.0843569
0.3008192 0.3426432 -0.08426731
0.3006199 0.3454999 -0.08416657
0.3003985 0.3483544 -0.0840547
0.300155 0.3512067 -0.08393173
0.2998894 0.3540566 -0.08379767
0.2996016 0.3569037 -0.08365256
0.2992918 0.359748 -0.08349642
0.2989598 0.3625891 -0.08332928
0.2986058 0.3654269 -0.08315117
0.2982297 0.3682611 -0.08296213
0.2978315 0.3710916 -0.08276219
0.2974113 0.3739181 -0.08255139
0.296969 0.3767404 -0.08232978
0.2965046 0.3795583 -0.08209738
0.2960182 0.3823715 -0.08185426
0.2955098 0.38518 -0.08160044
0.2949794 0.3879833 -0.081336
0.294427 0.3907814 -0.08106096
0.2938526 0.393574 -0.0807754
0.2932562 0.3963609 -0.08047936
0.2926379 0.3991419 -0.08017289
0.2919977 0.4019168 -0.07985607
0.2913355 0.4046853 -0.07952895
0.2906514 0.4074472 -0.0791916
0.2899454 0.4102024 -0.07884408
0.2892175 0.4129505 -0.07848647
0.2884678 0.4156915 -0.07811882
0.2876962 0.418425 -0.07774122
0.2869028 0.4211509 -0.07735374
0.2860877 0.423869 -0.07695645
0.2852507 0.4265789 -0.07654945
0.284392 0.4292806 -0.0761328
0.2835115 0.4319738 -0.07570659
0.2826094 0.4346583 -0.07527091
0.2816855 0.4373338 -0.07482585
0.28074 0.4400002 -0.0743715
0.2797729 0.4426573 -0.07390794
0.2787841 0.4453047 -0.07343529
0.2777738 0.4479424 -0.07295363
0.2767419 0.4505701 -0.07246306
0.2756885 0.4531875 -0.07196368
0.2746136 0.4557946 -0.07145561
0.2735172 0.4583909 -0.07093894
0.2723994 0.4609764 -0.07041379
0.2712602 0.4635509 -0.06988027
0.2700997 0.466114 -0.06933848
0.2689178 0.4686657 -0.06878856
0.2677146 0.4712056 -0.06823061
0.2664902 0.4737336 -0.06766475
0.2652445 0.4762494 -0.06709112
0.2639777 0.4787529 -0.06650983
0.2626898 0.4812438 -0.06592101
0.2613807 0.4837219 -0.0653248
0.2600506 0.486187 -0.06472133
0.2586995 0.4886389 -0.06411072
0.2573275 0.4910774 -0.06349313
0.2559345 0.4935022 -0.06286869
0.2545207 0.4959132 -0.06223754
0.2530861 0.4983101 -0.06159982
0.2516307 0.5006928 -0.0609557
0.2501546 0.503061 -0.0603053
0.2486578 0.5054145 -0.0596488
0.2471405 0.507753 -0.05898634
0.2456026 0.5100765 -0.05831808
0.2440443 0.5123846 -0.05764418
0.2424655 0.5146772 -0.05696481
0.2408663 0.5169541 -0.05628012
0.2392469 0.519215 -0.0555903
0.2376073 0.5214597 -0.0548955
0.2359475 0.5236881 -0.0541959
0.2342676 0.5259 -0.05349168
0.2325677 0.528095 -0.05278301
0.2308478 0.5302731 -0.05207008
0.2291081 0.5324339 -0.05135307
0.2273486 0.5345774 -0.05063216
0.2255694 0.5367033 -0.04990755
0.2237705 0.5388114 -0.04917942
0.2219522 0.5409016 -0.04844797
0.2201143 0.5429735 -0.0477134
0.2182571 0.545027 -0.0469759
0.2163806 0.547062 -0.04623568
0.214485 0.5490781 -0.04549294
0.2125702 0.5510753 -0.04474789
0.2106365 0.5530533 -0.04400074
0.2086838 0.5550119 -0.0432517
0.2067124 0.556951 -0.04250098
0.2047223 0.5588703 -0.04174881
0.2027136 0.5607697 -0.0409954
0.2006864 0.5626489 -0.04024098
0.1986409 0.5645079 -0.03948577
0.1965771 0.5663463 -0.03873001
0.1944952 0.568164 -0.03797391
0.1923954 0.5699609 -0.03721772
0.1902776 0.5717368 -0.03646167
0.1881421 0.5734914 -0.035706
0.185989 0.5752247 -0.03495095
0.1838184 0.5769363 -0.03419676
0.1816305 0.5786263 -0.03344368
0.1794253 0.5802943 -0.03269196
0.1772031 0.5819403 -0.03194184
0.174964 0.583564 -0.03119359
0.172708 0.5851653 -0.03044746
0.1704355 0.5867441 -0.0297037
0.1681465 0.5883001 -0.02896257
0.1658412 0.5898333 -0.02822435
0.1635197 0.5913435 -0.02748928
0.1611823 0.5928305 -0.02675765
0.158829 0.5942942 -0.02602972
0.1564601 0.5957344 -0.02530575
0.1540758 0.5971511 -0.02458603
0.1516761 0.598544 -0.02387083
0.1492614 0.5999131 -0.02316042
0.1468317 0.6012582 -0.02245509
0.1443873 0.6025792 -0.02175511
0.1419283 0.6038759 -0.02106078
0.139455 0.6051483 -0.02037236
0.1369676 0.6063963 -0.01969016
0.1344662 0.6076197 -0.01901445
0.1319511 0.6088184 -0.01834553
0.1294225 0.6099923 -0.01768369
0.1268806 0.6111414 -0.01702922
0.1243255 0.6122655 -0.01638241
0.1217577 0.6133646 -0.01574355
0.1191771 0.6144386 -0.01511295
0.1165842 0.6154873 -0.0144909
0.1139791 0.6165108 -0.01387769
0.111362 0.6175089 -0.01327363
0.1087333 0.6184816 -0.01267901
0.1060931 0.6194288 -0.01209413
0.1034416 0.6203506 -0.0115193
0.1007792 0.6212467 -0.01095481
0.09810614 0.6221173 -0.01040097
0.09542259 0.6229623 -0.009858066
0.09272885 0.6237816 -0.009326411
0.09002518 0.6245752 -0.008806302
0.08731186 0.625343 -0.00829804
0.08458915 0.6260852 -0.007801925
0.08185733 0.6268017 -0.007318256
0.07911667 0.6274925 -0.006847333
0.07636746 0.6281575 -0.006389454
0.07360997 0.6287969 -0.005944916
0.07084451 0.6294106 -0.005514015
0.06807134 0.6299986 -0.005097046
0.06529077 0.6305611 -0.004694303
0.0625031 0.631098 -0.004306079
0.05970861 0.6316093 -0.003932663
0.05690761 0.6320953 -0.003574345
0.0541004 0.6325558 -0.003231411
0.05128729 0.632991 -0.002904145
0.04846858 0.633401 -0.002592831
0.04564458 0.6337858 -0.002297748
0.0428156 0.6341455 -0.002019173
0.03998197 0.6344803 -0.001757381
0.03714398 0.6347902 -0.001512643
0.03430196 0.6350754 -0.001285227
0.03145623 0.6353359 -0.001075399
0.0286071 0.635572 -0.0008834191
0.0257549 0.6357837 -0.0007095462
0.02289994 0.6359712 -0.0005540341
0.02004256 0.6361347 -0.0004171327
0.01718306 0.6362742 -0.0002990879
0.01432179 0.6363901 -0.000200141
0.01145905 0.6364823 -0.000120529
0.008595179 0.6365513 -6.048415e-05
0.005730497 0.636597 -2.023373e-05
0.00286533 0.6366198 0
0 0.6366198 0

LINES 349 1047
2 0 1
2 1 2
2 2 3
2 3 4
2 4 5
2 5 6
2 6 7
2 7 8
2 8 9
2 9 10
2 10 11
2 11 12
2 12 13
2 13 14
2 14 15
2 15 16
2 16 17
2 17 18
2 18 19
2 19 20
2 20 21
2 21 22
2 22 23
2 23 24
2 24 25
2 25 26
2 26 27
2 27 28
2 28 29
2 29 30
2 30 31
2 31 32
2 32 33
2 33 34
2 34 35
2 35 36
2 36 37
2 37 38
2 38 39
2 39 40
2 40 41
2 41 42
2 42 43
2 43 44
2 44 45
2 45 46
2 46 47
2 47 48
2 48 49
2 49 50
2 50 51
2 51 52
2 52 53
2 53 54
2 54 55
2 55 56
2 56 57
2 57 58
2 58 59
2 59 60
2 60 61
2 61 62
2 62 63
2 63 64
2 64 65
2 65 66
2 66 67
2 67 68
2 68 69
2 69 70
2 70 71
2 71 72
2 72 73
2 73 74
2 74 75
2 75 76
2 76 77
2 77 78
2 78 79
2 79 80
2 80 81
2 81 82
2 82 83
2 83 84
2 84 85
2 85 86
2 86 87
2 87 88
2 88 89
2 89 90
2 90 91
2 91 92
2 92 93
2 93 94
2 94 95
2 95 96
2 96 97
2 97 98
2 98 99
2 99 100
2 100 101
2 101 102
2 102 103
2 103 104
2 104 105
2 105 106
2 106 107
2 107 108
2 108 109
2 109 110
2 110 111
2 111 112
2 112 113
2 113 114
2 114 115
2 115 116
2 116 117
2 117 118
2 118 119
2 119 120
2 120 121
2 121 122
2 122 123
2 123 124
2 124 125
2 125 126
2 126 127
2 127 128
2 128 129
2 129 130
2 130 131
2 131 132
2 132 133
2 133 134
2 134 135
2 135 136
2 136 137
2 137 138
2 138 139
2 139 140
2 140 141
2 141 142
2 142 143
2 143 144
2 144 145
2 145 146
2 146 147
2 147 148
2 148 149
2 149 150
2 150 151
2 151 152
2 152 153
2 153 154
2 154 155
2 155 156
2 156 157
2 157 158
2 158 159
2 159 160
2 160 161
2 161 162
2 162 163
2 163 164
2 164 165
2 165 166
2 166 167
2 167 168
2 168 169
2 169 170
2 170 171
2 171 172
2 172 173
2 173 174
2 174 175
2 175 176
2 176 177
2 177 178
2 178 179
2 179 180
2 180 181
2 181 182
2 182 183
2 183 184
2 184 185
2 185 186
2 186 187
2 187 188
2 188 189
2 189 190
2 190 191
2 191 192
2 192 193
2 193 194
2 194 195
2 195 196
2 196 197
2 197 198
2 198 199
2 199 200
2 200 201
2 201 202
2 202 203
2 203 204
2 204 205
2 205 206
2 206 207
2 207 208
2 208 209
2 209 210
2 210 211
2 211 212
2 212 213
2 213 214
2 214 215
2 215 216
2 216 217
2 217 218
2 218 219
2 219 220
2 220 221
2 221 222
2 222 223
2 223 224
2 224 225
2 225 226
2 226 227
2 227 228
2 228 229
2 229 230
2 230 231
2 231 232
2 232 233
2 233 234
2 234 235
2 235 236
2 236 237
2 237 238
2 238 239
2 239 240
2 240 241
2 241 242
2 242 243
2 243 244
2 244 245
2 245 246
2 246 247
2 247 248
2 248 249
2 249 250
2 250 251
2 251 252
2 252 253
2 253 254
2 254 255
2 255 256
2 256 257
2 257 258
2 258 259
2 259 260
2 260 261
2 261 262
2 262 263
2 263 264
2 264 265
2 265 266
2 266 267
2 267 268
2 268 269
2 269 270
2 270 271
2 271 272
2 272 273
2 273 274
2 274 275
2 275 276
2 276 277
2 277 278
2 278 279
2 279 280
2 280 281
2 281 282
2 282 283
2 283 284
2 284 285
2 285 286
2 286 287
2 287 288
2 288 289
2 289 290
2 290 291
2 291 292
2 292 293
2 293 294
2 294 295
2 295 296
2 296 297
2 297 298
2 298 299
2 299 300
2 300 301
2 301 302
2 302 303
2 303 304
2 304 305
2 305 306
2 306 307
2 307 308
2 308 309
2 309 310
2 310 311
2 311 312
2 312 313
2 313 314
2 314 315
2 315 316
2 316 317
2 317 318
2 318 319
2 319 320
2 320 321
2 321 322
2 322 323
2 323 324
2 324 325
2 325 326
2 326 327
2 327 328
2 328 329
2 329 330
2 330 331
2 331 332
2 332 333
2 333 334
2 334 335
2 335 336
2 336 337
2 337 338
2 338 339
2 339 340
2 340 341
2 341 342
2 342 343
2 343 344
2 344 345
2 345 346
2 346 347
2 347 348
2 348 349


POINT_DATA 350
SCALARS a FLOAT 1
LOOKUP_TABLE default
0.0005894628
0.0005894628
0.0005894628
0.0005894628
0.0005894628
0.0005894628
0.0005894628
0.0005894628
0.0005894628
0.0005894628
0.0005894628
0.0005894628
0.0005894628
0.0005894628
0.0005894628
0.0005894628
0.0005894628
0.0005894628
0.0005894628
0.0005894628
0.0005894628
0.0005894628
0.0005894628
0.0005894628
0.0005894628
0.0005894628
0.0005894628
0.0005894628
0.0005894628
0.0005894628
0.0005894628
0.0005894628
0.0005894628
0.0005894628
0.0005894628
0.0005894628
0.0005894628
0.0005894628
0.0005894628
0.0005894628
0.0005894628
0.0005894628
0.0005894628
0.0005894628
0.0005894628
0.0005894628
0.0005894628
0.0005894628
0.0005894628
0.0005894628
0.0005894628
0.0005894628
0.0005894628
0.0005894628
0.0005894628
0.0005894628
0.0005894628
0.0005894628
0.0005894628
0.0005894628
0.0005894628
0.0005894628
0.0005894628
0.0005894628
0.0005894628
0.0005894628
0.0005894628
0.0005894628
0.0005894628
0.0005894628
0.0005894628
0.0005894628
0.0005894628
0.0005894628
0.0005894628
0.0005894628
0.0005894628
0.0005894628
0.0005894628
0.0005894628
0.0005894628
0.0005894628
0.0005894628
0.0005894628
0.0005894628
0.0005894628
0.0005894628
0.0005894628
0.0005894628
0.0005894628
0.0005894628
0.0005894628
0.0005894628
0.0005894628
0.0005894628
0.0005894628
0.0005894628
0.0005894628
0.0005894628
0.0005894628
0.0005894628
0.0005894628
0.0005894628
0.0005894628
0.0005894628
0.0005894628
0.0005894628
0.0005894628
0.0005894628
0.0005894628
0.0005894628
0.0005894628
0.0005894628
0.0005894628
0.0005894628
0.0005894628
0.0005894628
0.0005894628
0.0005894628
0.0005894628
0.0005894628
0.0005894628
0.0005894628
0.0005894628
0.0005894628
0.0005894628
0.0005894628
0.0005894628
0.0005894628
0.0005894628
0.0005894628
0.0005894628
0.0005894628
0.0005894628
0.0005894628
0.0005894628
0.0005894628
0.0005894628
0.0005894628
0.0005894628
0.0005894628
0.0005894628
0.0005894628
0.0005894628
0.0005894628
0.0005894628
0.0005894628
0.0005894628
0.0005894628
0.0005894628
0.0005894628
0.0005894628
0.0005894628
0.0005894628
0.0005894628
0.0005894628
0.0005894628
0.0005894628
0.0005894628
0.0005894628
0.0005894628
0.0005894628
0.0005894628
0.0005894628
0.0005894628
0.0005894628
0.0005894628
0.0005894628
0.0005894628
0.0005894628
0.0005894628
0.0005894628
0.0005894628
0.0005894628
0.0005894628
0.0005894628
0.0005894628
0.0005894628
0.0005894628
0.0005894628
0.0005894628
0.0005894628
0.0005894628
0.0005894628
0.0005894628
0.0005894628
0.0005894628
0.0005894628
0.0005894628
0.0005894628
0.0005894628
0.0005894628
0.0005894628
0.0005894628
0.0005894628
0.0005894628
0.0005894628
0.0005894628
0.0005894628
0.0005894628
0.0005894628
0.0005894628
0.0005894628
0.0005894628
0.0005894628
0.0005894628
0.0005894628
0.0005894628
0.0005894628
0.0005894628
0.0005894628
0.0005894628
0.0005894628
0.0005894628
0.0005894628
0.0005894628
0.0005894628
0.0005894628
0.0005894628
0.0005894628
0.0005894628
0.0005894628
0.0005894628
0.0005894628
0.0005894628
0.0005894628
0.0005894628
0.0005894628
0.0005894628
0.0005894628
0.0005894628
0.0005894628
0.0005894628
0.0005894628
0.0005894628
0.0005894628
0.0005894628
0.0005894628
0.0005894628
0.0005894628
0.0005894628
0.0005894628
0.0005894628
0.0005894628
0.0005894628
0.0005894628
0.0005894628
0.0005894628
0.0005894628
0.0005894628
0.0005894628
0.0005894628
0.0005894628
0.0005894628
0.0005894628
0.0005894628
0.0005894628
0.0005894628
0.0005894628
0.0005894628
0.0005894628
0.0005894628
0.0005894628
0.0005894628
0.0005894628
0.0005894628
0.0005894628
0.0005894628
0.0005894628
0.0005894628
0.0005894628
0.0005894628
0.0005894628
0.0005894628
0.0005894628
0.0005894628
0.0005894628
0.0005894628
0.0005894628
0.0005894628
0.0005894628
0.0005894628
0.0005894628
0.0005894628
0.0005894628
0.0005894628
0.0005894628
0.0005894628
0.0005894628
0.0005894628
0.0005894628
0.0005894628
0.0005894628
0.0005894628
0.0005894628
0.0005894628
0.0005894628
0.0005894628
0.0005894628
0.0005894628
0.0005894628
0.0005894628
0.0005894628
0.0005894628
0.0005894628
0.0005894628
0.0005894628
0.0005894628
0.0005894628
0.0005894628
0.0005894628
0.0005894628
0.0005894628
0.0005894628
0.0005894628
0.0005894628
0.0005894628
0.0005894628
0.0005894628
0.0005894628
0.0005894628
0.0005894628
0.0005894628
0.0005894628
0.0005894628
0.0005894628
0.0005894628
0.0005894628
0.0005894628
0.0005894628
0.0005894628
0.0005894628
0.0005894628
0.0005894628
0.0005894628
0.0005894628
0.0005894628
0.0005894628
0.0005894628
0.0005894628
0.0005894628
0.0005894628
0.0005894628
0.0005894628
0.0005894628
0.0005894628
0.0005894628
0.0005894628
0.0005894628
0.0005894628


SCALARS b FLOAT 1
LOOKUP_TABLE default
0.02357851
0.02357851
0.02357851
0.02357851
0.02357851
0.02357851
0.02357851
0.02357851
0.02357851
0.02357851
0.02357851
0.02357851
0.02357851
0.02357851
0.02357851
0.02357851
0.02357851
0.02357851
0.02357851
0.02357851
0.02357851
0.02357851
0.02357851
0.02357851
0.02357851
0.02357851
0.02357851
0.02357851
0.02357851
0.02357851
0.02357851
0.02357851
0.02357851
0.02357851
0.02357851
0.02357851
0.02357851
0.02357851
0.02357851
0.02357851
0.02357851
0.02357851
0.02357851
0.02357851
0.02357851
0.02357851
0.02357851
0.02357851
0.02357851
0.02357851
0.02357851
0.02357851
0.02357851
0.02357851
0.02357851
0.02357851
0.02357851
0.02357851
0.02357851
0.02357851
0.02357851
0.02357851
0.02357851
0.02357851
0.02357851
0.02357851
0.02357851
0.02357851
0.02357851
0.02357851
0.02357851
0.02357851
0.02357851
0.02357851
0.02357851
0.02357851
0.02357851
0.02357851
0.02357851
0.02357851
0.02357851
0.02357851
0.02357851
0.02357851
0.02357851
0.02357851
0.02357851
0.02357851
0.02357851
0.02357851
0.02357851
0.02357851
0.02357851
0.02357851
0.02357851
0.02357851
0.02357851
0.02357851
0.02357851
0.02357851
0.02357851
0.02357851
0.02357851
0.02357851
0.02357851
0.02357851
0.02357851
0.02357851
0.02357851
0.02357851
0.02357851
0.02357851
0.02357851
0.02357851
0.02357851
0.02357851
0.02357851
0.02357851
0.02357851
0.02357851
0.02357851
0.02357851
0.02357851
0.02357851
0.02357851
0.02357851
0.02357851
0.02357851
0.02357851
0.02357851
0.02357851
0.02357851
0.02357851
0.02357851
0.02357851
0.02357851
0.02357851
0.02357851
0.02357851
0.02357851
0.02357851
0.02357851
0.02357851
0.02357851
0.02357851
0.02357851
0.02357851
0.02357851
0.02357851
0.02357851
0.02357851
0.02357851
0.02357851
0.02357851
0.02357851
0.02357851
0.02357851
0.02357851
0.02357851
0.02357851
0.02357851
0.02357851
0.02357851
0.02357851
0.02357851
0.02357851
0.02357851
0.02357851
0.02357851
0.02357851
0.02357851
0.02357851
0.02357851
0.02357851
0.02357851
0.02357851
0.02357851
0.02357851
0.02357851
0.02357851
0.02357851
0.02357851
0.02357851
0.02357851
0.02357851
0.02357851
0.02357851
0.02357851
0.02357851
0.02357851
0.02357851
0.02357851
0.02357851
0.02357851
0.02357851
0.02357851
0.02357851
0.02357851
0.02357851
0.02357851
0.02357851
0.02357851
0.02357851
0.02357851
0.02357851
0.02357851
0.02357851
0.02357851
0.02357851
0.02357851
0.02357851
0.02357851
0.02357851
0.02357851
0.02357851
0.02357851
0.02357851
0.02357851
0.02357851
0.02357851
0.02357851
0.02357851
0.02357851
0.02357851
0.02357851
0.02357851
0.02357851
0.02357851
0.02357851
0.02357851
0.02357851
0.02357851
0.02357851
0.02357851
0.02357851
0.02357851
0.02357851
0.02357851
0.02357851
0.02357851
0.02357851
0.02357851
0.02357851
0.02357851
0.02357851
0.02357851
0.02357851
0.02357851
0.02357851
0.02357851
0.02357851
0.02357851
0.02357851
0.02357851
0.02357851
0.02357851
0.02357851
0.02357851
0.02357851
0.02357851
0.02357851
0.02357851
0.02357851
0.02357851
0.02357851
0.02357851
0.02357851
0.02357851
0.02357851
0.02357851
0.02357851
0.02357851
0.02357851
0.02357851
0.02357851
0.02357851
0.02357851
0.02357851
0.02357851
0.02357851
0.02357851
0.02357851
0.02357851
0.02357851
0.02357851
0.02357851
0.02357851
0.02357851
0.02357851
0.02357851
0.02357851
0.02357851
0.02357851
0.02357851
0.02357851
0.02357851
0.02357851
0.02357851
0.02357851
0.02357851
0.02357851
0.02357851
0.02357851
0.02357851
0.02357851
0.02357851
0.02357851
0.02357851
0.02357851
0.02357851
0.02357851
0.02357851
0.02357851
0.02357851
0.02357851
0.02357851
0.02357851
0.02357851
0.02357851
0.02357851
0.02357851
0.02357851
0.02357851
0.02357851
0.02357851
0.02357851
0.02357851
0.02357851
0.02357851
0.02357851
0.02357851
0.02357851
0.02357851
0.02357851
0.02357851
0.02357851
0.02357851
0.02357851
0.02357851
0.02357851
0.02357851
0.02357851
0.02357851
0.02357851
0.02357851
0.02357851
0.02357851
0.02357851
0.02357851
0.02357851


VECTORS d1 FLOAT
0 0.7438451 -0.668352
-0.01063046 0.7503462 -0.6609595
-0.02126402 0.756662 -0.6534604
-0.0318975 0.7627917 -0.6458571
-0.04252777 0.7687348 -0.6381522
-0.05315175 0.7744909 -0.6303481
-0.06376638 0.7800596 -0.6224475
-0.07436869 0.7854405 -0.614453
-0.08495571 0.7906335 -0.6063672
-0.09552455 0.7956385 -0.5981927
-0.1060724 0.8004553 -0.5899322
-0.1165963 0.8050839 -0.5815885
-0.1270937 0.8095246 -0.5731641
-0.1375618 0.8137774 -0.5646619
-0.147998 0.8178426 -0.5560845
-0.1583998 0.8217206 -0.5474348
-0.1687644 0.8254116 -0.5387153
-0.1790896 0.8289163 -0.529929
-0.1893729 0.832235 -0.5210785
-0.1996119 0.8353685 -0.5121666
-0.2098043 0.8383173 -0.503196
-0.2199479 0.8410822 -0.4941696
-0.2300406 0.8436641 -0.48509
-0.2400801 0.8460636 -0.47596
-0.2500645 0.8482818 -0.4667823
-0.2599917 0.8503196 -0.4575597
-0.2698598 0.852178 -0.4482949
-0.279667 0.8538581 -0.4389905
-0.2894113 0.8553611 -0.4296493
-0.2990911 0.856688 -0.4202739
-0.3087047 0.8578401 -0.410867
-0.3182504 0.8588187 -0.4014313
-0.3277266 0.8596251 -0.3919693
-0.3371319 0.8602607 -0.3824836
-0.3464647 0.8607267 -0.3729769
-0.3557237 0.8610247 -0.3634516
-0.3649076 0.8611561 -0.3539103
-0.3740151 0.8611225 -0.3443556
-0.3830449 0.8609253 -0.3347898
-0.3919959 0.8605661 -0.3252155
-0.400867 0.8600466 -0.3156351
-0.4096572 0.8593683 -0.3060509
-0.4183654 0.8585329 -0.2964654
-0.4269907 0.857542 -0.2868808
-0.4355323 0.8563975 -0.2772995
-0.4439893 0.8551009 -0.2677238
-0.4523609 0.853654 -0.2581558
-0.4606464 0.8520587 -0.2485979
-0.4688452 0.8503166 -0.2390522
-0.4769566 0.8484295 -0.2295208
-0.4849801 0.8463993 -0.2200058
-0.4929151 0.8442278 -0.2105094
-0.5007612 0.8419167 -0.2010335
-0.5085179 0.839468 -0.1915802
-0.5161849 0.8368835 -0.1821515
-0.5237619 0.834165 -0.1727493
-0.5312484 0.8313143 -0.1633755
-0.5386444 0.8283335 -0.1540319
-0.5459496 0.8252242 -0.1447205
-0.5531639 0.8219884 -0.135443
-0.560287 0.8186279 -0.1262012
-0.567319 0.8151447 -0.1169968
-0.5742599 0.8115405 -0.1078315
-0.5811095 0.8078173 -0.09870696
-0.5878679 0.8039768 -0.08962483
-0.5945353 0.800021 -0.08058669
-0.6011116 0.7959517 -0.07159409
-0.6075971 0.7917707 -0.06264856
-0.613992 0.7874799 -0.05375159
-0.6202963 0.7830811 -0.04490463
-0.6265104 0.7785762 -0.03610911
-0.6326345 0.7739668 -0.0273664
-0.6386689 0.7692549 -0.01867788
-0.644614 0.7644422 -0.01004486
-0.65047 0.7595305 -0.001468627
-0.6562373 0.7545216 0.007049556
-0.6619164 0.7494172 0.01550846
-0.6675077 0.744219 0.0239069
-0.6730115 0.7389289 0.0322437
-0.6784284 0.7335484 0.04051774
-0.6837589 0.7280792 0.0487279
-0.6890034 0.7225232 0.05687311
-0.6941625 0.7168818 0.06495233
-0.6992368 0.7111569 0.07296455
-0.7042267 0.7053499 0.08090876
-0.7091329 0.6994626 0.08878403
-0.7139559 0.6934965 0.0965894
-0.7186965 0.6874532 0.104324
-0.7233551 0.6813342 0.1119869
-0.7279325 0.6751412 0.1195773
-0.7324292 0.6688756 0.1270943
-0.736846 0.6625389 0.1345372
-0.7411835 0.6561326 0.1419051
-0.7454424 0.6496583 0.1491974
-0.7496233 0.6431172 0.1564132
-0.7537271 0.636511 0.1635519
-0.7577543 0.629841 0.1706128
-0.7617058 0.6231085 0.1775952
-0.7655822 0.6163151 0.1844985
-0.7693842 0.6094619 0.1913221
-0.7731126 0.6025504 0.1980653
-0.7767682 0.5955819 0.2047277
-0.7803516 0.5885576 0.2113085
-0.7838636 0.5814789 0.2178074
-0.787305 0.574347 0.2242237
-0.7906765 0.5671632 0.230557
-0.7939789 0.5599287 0.2368068
-0.7972128 0.5526446 0.2429726
-0.8003791 0.5453122 0.2490539
-0.8034786 0.5379326 0.2550504
-0.8065119 0.530507 0.2609616
-0.8094798 0.5230365 0.2667871
-0.812383 0.5155222 0.2725265
-0.8152224 0.5079653 0.2781795
-0.8179985 0.5003667 0.2837456
-0.8207123 0.4927275 0.2892246
-0.8233644 0.4850489 0.2946162
-0.8259555 0.4773317 0.2999199
-0.8284864 0.469577 0.3051355
-0.8309578 0.4617858 0.3102627
-0.8333704 0.4539591 0.3153013
-0.8357249 0.4460978 0.3202508
-0.838022 0.4382029 0.3251112
-0.8402625 0.4302752 0.3298822
-0.8424469 0.4223157 0.3345634
-0.844576 0.4143253 0.3391547
-0.8466505 0.4063048 0.3436559
-0.8486709 0.3982551 0.3480668
-0.8506381 0.3901771 0.3523871
-0.8525526 0.3820715 0.3566167
-0.854415 0.3739393 0.3607554
-0.856226 0.3657811 0.364803
-0.8579862 0.3575978 0.3687593
-0.8596962 0.3493902 0.3726243
-0.8613567 0.3411589 0.3763977
-0.8629681 0.3329049 0.3800794
-0.8645311 0.3246287 0.3836693
-0.8660462 0.3163312 0.3871673
-0.8675141 0.308013 0.3905731
-0.8689351 0.2996748 0.3938868
-0.8703099 0.2913173 0.3971082
-0.871639 0.2829413 0.4002371
-0.8729228 0.2745473 0.4032735
-0.8741619 0.266136 0.4062174
-0.8753568 0.257708 0.4090685
-0.8765079 0.2492641 0.4118269
-0.8776156 0.2408048 0.4144924
-0.8786804 0.2323307 0.4170649
-0.8797028 0.2238425 0.4195445
-0.880683 0.2153407 0.421931
-0.8816216 0.2068259 0.4242244
-0.882519 0.1982988 0.4264245
-0.8833754 0.1897598 0.4285314
-0.8841912 0.1812097 0.430545
-0.8849668 0.1726488 0.4324653
-0.8857025 0.1640777 0.4342921
-0.8863985 0.1554971 0.4360255
-0.8870553 0.1469075 0.4376654
-0.8876731 0.1383093 0.4392118
-0.8882521 0.1297032 0.4406647
-0.8887925 0.1210896 0.4420239
-0.8892947 0.1124691 0.4432896
-0.8897588 0.1038421 0.4444615
-0.8901851 0.09520923 0.4455399
-0.8905736 0.08657094 0.4465245
-0.8909246 0.07792776 0.4474154
-0.8912383 0.06928016 0.4482126
-0.8915148 0.06062866 0.448916
-0.8917541 0.05197375 0.4495257
-0.8919565 0.04331591 0.4500416
-0.8921219 0.03465564 0.4504637
-0.8922505 0.02599343 0.450792
-0.8923423 0.01732976 0.4510265
-0.8923974 0.008665124 0.4511672
-0.8924157 -4.385381e-15 0.4512141
-0.8923974 -0.008665124 0.4511672
-0.8923423 -0.01732976 0.4510265
-0.8922505 -0.02599343 0.450792
-0.8921219 -0.03465564 0.4504637
-0.8919565 -0.04331591 0.4500416
-0.8917541 -0.05197375 0.4495257
-0.8915148 -0.06062866 0.448916
-0.8912383 -0.06928016 0.4482126
-0.8909246 -0.07792776 0.4474154
-0.8905736 -0.08657094 0.4465245
-0.8901851 -0.09520923 0.4455399
-0.8897588 -0.1038421 0.4444615
-0.8892947 -0.1124691 0.4432896
-0.8887925 -0.1210896 0.4420239
-0.8882521 -0.1297032 0.4406647
-0.8876731 -0.1383093 0.4392118
-0.8870553 -0.1469075 0.4376654
-0.8863985 -0.1554971 0.4360255
-0.8857025 -0.1640777 0.4342921
-0.8849668 -0.1726488 0.4324653
-0.8841912 -0.1812097 0.430545
-0.8833754 -0.1897598 0.4285314
-0.882519 -0.1982988 0.4264245
-0.8816216 -0.2068259 0.4242244
-0.880683 -0.2153407 0.421931
-0.8797028 -0.2238425 0.4195445
-0.8786804 -0.2323307 0.4170649
-0.8776156 -0.2408048 0.4144924
-0.8765079 -0.2492641 0.4118269
-0.8753568 -0.257708 0.4090685
-0.8741619 -0.266136 0.4062174
-0.8729228 -0.2745473 0.4032735
-0.871639 -0.2829413 0.4002371
-0.8703099 -0.2913173 0.3971082
-0.8689351 -0.2996748 0.3938868
-0.8675141 -0.308013 0.3905731
-0.8660462 -0.3163312 0.3871673
-0.8645311 -0.3246287 0.3836693
-0.8629681 -0.3329049 0.3800794
-0.8613567 -0.3411589 0.3763977
-0.8596962 -0.3493902 0.3726243
-0.8579862 -0.3575978 0.3687593