# vtk DataFile Version 2.0
Written badly by Kevin Korner
ASCII
DATASET POLYDATA
POINTS 350 FLOAT
0 0 0
0.00286533 0 0
0.005730501 2.337516e-05 1.889368e-05
0.0085952 7.029601e-05 5.646454e-05
0.01145911 0.0001409262 0.0001124921
0.01432192 0.0002354224 0.0001867521
0.01718331 0.0003539346 0.0002790166
0.02004297 0.0004966056 0.0003890542
0.02290058 0.0006635716 0.0005166301
0.02575584 0.0008549617 0.0006615061
0.02860843 0.001070898 0.000823441
0.03145804 0.001311497 0.001002191
0.03430436 0.001576866 0.001197508
0.03714708 0.001867109 0.001409144
0.03998591 0.002182319 0.001636846
0.04282052 0.002522585 0.001880359
0.04565062 0.00288799 0.002139427
0.04847591 0.003278609 0.00241379
0.05129608 0.00369451 0.002703188
0.05411085 0.004135755 0.003007357
0.05691991 0.004602401 0.003326033
0.05972296 0.005094496 0.00365895
0.06251972 0.005612085 0.004005839
0.0653099 0.006155203 0.004366432
0.06809322 0.006723881 0.004740459
0.07086937 0.007318144 0.005127647
0.07363809 0.00793801 0.005527725
0.0763991 0.008583492 0.005940418
0.07915211 0.009254597 0.006365453
0.08189686 0.009951325 0.006802556
0.08463306 0.01067367 0.00725145
0.08736046 0.01142162 0.00771186
0.09007879 0.01219517 0.00818351
0.09278777 0.01299428 0.008666124
0.09548716 0.01381894 0.009159425
0.0981767 0.01466911 0.009663137
0.1008561 0.01554475 0.01017698
0.1035252 0.01644583 0.01070069
0.1061836 0.01737228 0.01123398
0.1088313 0.01832407 0.01177657
0.1114678 0.01930113 0.0123282
0.1140929 0.0203034 0.01288858
0.1167065 0.02133081 0.01345745
0.1193083 0.0223833 0.01403453
0.1218981 0.02346078 0.01461955
0.1244756 0.02456318 0.01521224
0.1270406 0.02569041 0.01581232
0.129593 0.02684238 0.01641953
0.1321324 0.02801901 0.01703359
0.1346587 0.02922018 0.01765425
0.1371716 0.03044581 0.01828124
0.139671 0.03169579 0.01891428
0.1421566 0.03297001 0.01955312
0.1446283 0.03426835 0.0201975
0.1470858 0.0355907 0.02084715
0.149529 0.03693695 0.02150182
0.1519576 0.03830697 0.02216124
0.1543716 0.03970063 0.02282517
0.1567706 0.04111781 0.02349335
0.1591545 0.04255837 0.02416552
0.1615231 0.04402218 0.02484144
0.1638764 0.0455091 0.02552085
0.1662139 0.04701899 0.02620351
0.1685357 0.04855171 0.02688918
0.1708416 0.05010711 0.0275776
0.1731313 0.05168503 0.02826855
0.1754048 0.05328534 0.02896177
0.1776618 0.05490786 0.02965703
0.1799022 0.05655246 0.03035411
0.1821259 0.05821897 0.03105275
0.1843327 0.05990722 0.03175274
0.1865224 0.06161706 0.03245384
0.188695 0.06334832 0.03315582
0.1908503 0.06510083 0.03385847
0.1929881 0.06687443 0.03456156
0.1951082 0.06866893 0.03526486
0.1972107 0.07048417 0.03596816
0.1992953 0.07231998 0.03667125
0.201362 0.07417617 0.0373739
0.2034105 0.07605257 0.03807591
0.2054407 0.077949 0.03877707
0.2074527 0.07986527 0.03947718
0.2094461 0.08180121 0.04017602
0.211421 0.08375662 0.04087339
0.2133772 0.08573133 0.0415691
0.2153146 0.08772514 0.04226294
0.217233 0.08973787 0.04295472
0.2191325 0.09176933 0.04364425
0.2210128 0.09381932 0.04433134
0.2228738 0.09588765 0.04501579
0.2247156 0.09797414 0.04569743
0.2265379 0.1000786 0.04637606
0.2283408 0.1022008 0.04705151
0.230124 0.1043405 0.04772359
0.2318875 0.1064977 0.04839213
0.2336312 0.108672 0.04905696
0.235355 0.1108632 0.0497179
0.2370589 0.1130713 0.05037478
0.2387427 0.1152959 0.05102743
0.2404065 0.1175368 0.0516757
0.24205 0.119794 0.05231941
0.2436732 0.1220671 0.0529584
0.245276 0.1243559 0.05359252
0.2468585 0.1266603 0.05422161
0.2484204 0.1289801 0.05484552
0.2499617 0.131315 0.0554641
0.2514825 0.1336648 0.05607719
0.2529825 0.1360293 0.05668464
0.2544617 0.1384084 0.05728633
0.25592 0.1408018 0.05788209
0.2573575 0.1432093 0.0584718
0.258774 0.1456307 0.05905531
0.2601695 0.1480658 0.05963248
0.2615439 0.1505143 0.0602032
0.2628972 0.1529762 0.06076731
0.2642292 0.155451 0.06132471
0.26554 0.1579388 0.06187525
0.2668295 0.1604391 0.06241881
0.2680977 0.1629519 0.06295528
0.2693444 0.1654769 0.06348453
0.2705697 0.1680139 0.06400644
0.2717735 0.1705627 0.0645209
0.2729558 0.1731231 0.0650278
0.2741164 0.1756948 0.06552702
0.2752555 0.1782777 0.06601846
0.2763728 0.1808715 0.06650201
0.2774684 0.183476 0.06697756
0.2785423 0.1860911 0.06744501
0.2795943 0.1887164 0.06790427
0.2806245 0.1913518 0.06835523
0.2816329 0.1939971 0.06879779
0.2826193 0.196652 0.06923188
0.2835838 0.1993164 0.06965738
0.2845263 0.20199 0.07007422
0.2854467 0.2046725 0.07048231
0.2863452 0.2073639 0.07088156
0.2872215 0.2100639 0.07127188
0.2880758 0.2127722 0.0716532
0.2889079 0.2154887 0.07202544
0.2897178 0.2182131 0.07238853
0.2905056 0.2209451 0.07274238
0.2912711 0.2236847 0.07308693
0.2920144 0.2264316 0.0734221
0.2927354 0.2291856 0.07374783
0.2934341 0.2319463 0.07406405
0.2941105 0.2347138 0.07437069
0.2947645 0.2374876 0.0746677
0.2953962 0.2402676 0.07495502
0.2960055 0.2430536 0.07523258
0.2965924 0.2458454 0.07550034
0.2971569 0.2486427 0.07575823
0.2976989 0.2514453 0.07600621
0.2982185 0.2542531 0.07624423
0.2987156 0.2570657 0.07647224
0.2991902 0.2598831 0.07669019
0.2996424 0.2627049 0.07689805
0.300072 0.2655309 0.07709577
0.300479 0.268361 0.0772833
0.3008635 0.2711948 0.07746063
0.3012255 0.2740323 0.0776277
0.3015649 0.2768731 0.07778449
0.3018817 0.2797171 0.07793096
0.3021759 0.282564 0.07806709
0.3024476 0.2854137 0.07819286
0.3026966 0.2882658 0.07830823
0.302923 0.2911203 0.07841318
0.3031268 0.2939768 0.0785077
0.3033079 0.2968352 0.07859176
0.3034665 0.2996952 0.07866535
0.3036024 0.3025566 0.07872845
0.3037156 0.3054192 0.07878105
0.3038062 0.3082828 0.07882315
0.3038742 0.3111471 0.07885473
0.3039195 0.314012 0.07887578
0.3039421 0.3168772 0.07888631
0.3039421 0.3197426 0.07888631
0.3039195 0.3226078 0.07887578
0.3038742 0.3254727 0.07885473
0.3038062 0.328337 0.07882315
0.3037156 0.3312006 0.07878105
0.3036024 0.3340632 0.07872845
0.3034665 0.3369246 0.07866535
0.3033079 0.3397846 0.07859176
0.3031268 0.342643 0.0785077
0.302923 0.3454995 0.07841318
0.3026966 0.3483539 0.07830823
0.3024476 0.3512061 0.07819286
0.3021759 0.3540557 0.07806709
0.3018817 0.3569027 0.07793096
0.3015649 0.3597467 0.07778449
0.3012255 0.3625875 0.0776277
0.3008635 0.365425 0.07746063
0.300479 0.3682588 0.0772833
0.300072 0.3710889 0.07709577
0.2996424 0.3739149 0.07689805
0.2991902 0.3767367 0.07669019
0.2987156 0.379554 0.07647224
0.2982185 0.3823667 0.07624423
0.2976989 0.3851744 0.07600621
0.2971569 0.3879771 0.07575823
0.2965924 0.3907744 0.07550034
0.2960055 0.3935662 0.07523258
0.2953962 0.3963522 0.07495502
0.2947645 0.3991322 0.0746677
0.2941105 0.401906 0.07437069
0.2934341 0.4046734 0.07406405
0.2927354 0.4074342 0.07374783
0.2920144 0.4101882 0.0734221
0.2912711 0.412935 0.07308693
0.2905056 0.4156746 0.07274238
0.2897178 0.4184067 0.07238853
0.2889079 0.4211311 0.07202544
0.2880758 0.4238476 0.0716532
0.2872215 0.4265559 0.07127188
0.2863452 0.4292558 0.07088156
0.2854467 0.4319472 0.07048231
0.2845263 0.4346298 0.07007422
0.2835838 0.4373034 0.06965738
0.2826193 0.4399678 0.06923188
0.2816329 0.4426227 0.06879779
0.2806245 0.445268 0.06835523
0.2795943 0.4479034 0.06790427
0.2785423 0.4505287 0.06744501
0.2774684 0.4531438 0.06697756
0.2763728 0.4557483 0.06650201
0.2752555 0.4583421 0.06601846
0.2741164 0.460925 0.06552702
0.2729558 0.4634967 0.0650278
0.2717735 0.4660571 0.0645209
0.2705697 0.4686059 0.06400644
0.2693444 0.4711429 0.06348453
0.2680977 0.4736679 0.06295528
0.2668295 0.4761806 0.06241881
0.26554 0.478681 0.06187525
0.2642292 0.4811687 0.06132471
0.2628972 0.4836436 0.06076731
0.2615439 0.4861054 0.0602032
0.2601695 0.488554 0.05963248
0.258774 0.4909891 0.05905531
0.2573575 0.4934105 0.0584718
0.25592 0.495818 0.05788209
0.2544617 0.4982114 0.05728633
0.2529825 0.5005904 0.05668464
0.2514825 0.502955 0.05607719
0.2499617 0.5053048 0.0554641
0.2484204 0.5076397 0.05484552
0.2468585 0.5099595 0.05422161
0.245276 0.5122639 0.05359252
0.2436732 0.5145527 0.0529584
0.24205 0.5168258 0.05231941
0.2404065 0.5190829 0.0516757
0.2387427 0.5213239 0.05102743
0.2370589 0.5235485 0.05037478
0.235355 0.5257565 0.0497179
0.2336312 0.5279478 0.04905696
0.2318875 0.5301221 0.04839213
0.230124 0.5322792 0.04772359
0.2283408 0.534419 0.04705151
0.2265379 0.5365412 0.04637606
0.2247156 0.5386456 0.04569743
0.2228738 0.5407321 0.04501579
0.2210128 0.5428005 0.04433134
0.2191325 0.5448504 0.04364425
0.217233 0.5468819 0.04295472
0.2153146 0.5488946 0.04226294
0.2133772 0.5508884 0.0415691
0.211421 0.5528631 0.04087339
0.2094461 0.5548186 0.04017602
0.2074527 0.5567545 0.03947718
0.2054407 0.5586708 0.03877707
0.2034105 0.5605672 0.03807591
0.201362 0.5624436 0.0373739
0.1992953 0.5642998 0.03667125
0.1972107 0.5661356 0.03596816
0.1951082 0.5679508 0.03526486
0.1929881 0.5697453 0.03456156
0.1908503 0.5715189 0.03385847
0.188695 0.5732715 0.03315582
0.1865224 0.5750027 0.03245384
0.1843327 0.5767126 0.03175274
0.1821259 0.5784008 0.03105275
0.1799022 0.5800673 0.03035411
0.1776618 0.5817119 0.02965703
0.1754048 0.5833344 0.02896177
0.1731313 0.5849347 0.02826855
0.1708416 0.5865127 0.0275776
0.1685357 0.5880681 0.02688918
0.1662139 0.5896008 0.02620351
0.1638764 0.5911107 0.02552085
0.1615231 0.5925976 0.02484144
0.1591545 0.5940614 0.02416552
0.1567706 0.595502 0.02349335
0.1543716 0.5969191 0.02282517
0.1519576 0.5983128 0.02216124
0.149529 0.5996828 0.02150182
0.1470858 0.6010291 0.02084715
0.1446283 0.6023514 0.0201975
0.1421566 0.6036498 0.01955312
0.139671 0.604924 0.01891428
0.1371716 0.606174 0.01828124
0.1346587 0.6073996 0.01765425
0.1321324 0.6086008 0.01703359
0.129593 0.6097774 0.01641953
0.1270406 0.6109294 0.01581232
0.1244756 0.6120566 0.01521224
0.1218981 0.613159 0.01461955
0.1193083 0.6142365 0.01403453
0.1167065 0.615289 0.01345745
0.1140929 0.6163164 0.01288858
0.1114678 0.6173186 0.0123282
0.1088313 0.6182957 0.01177657
0.1061836 0.6192475 0.01123398
0.1035252 0.6201739 0.01070069
0.1008561 0.621075 0.01017698
0.0981767 0.6219507 0.009663137
0.09548716 0.6228008 0.009159425
0.09278777 0.6236255 0.008666124
0.09007879 0.6244246 0.00818351
0.08736046 0.6251981 0.00771186
0.08463306 0.6259461 0.00725145
0.08189686 0.6266684 0.006802556
0.07915211 0.6273652 0.006365453
0.0763991 0.6280363 0.005940418
0.07363809 0.6286818 0.005527725
0.07086937 0.6293016 0.005127647
0.06809322 0.6298959 0.004740459
0.0653099 0.6304646 0.004366432
0.06251972 0.6310077 0.004005839
0.05972296 0.6315253 0.00365895
0.05691991 0.6320174 0.003326033
0.05411085 0.632484 0.003007357
0.05129608 0.6329253 0.002703188
0.04847591 0.6333412 0.00241379
0.04565062 0.6337318 0.002139427
0.04282052 0.6340972 0.001880359
0.03998591 0.6344375 0.001636846
0.03714708 0.6347527 0.001409144
0.03430436 0.6350429 0.001197508
0.03145804 0.6353083 0.001002191
0.02860843 0.6355489 0.000823441
0.02575584 0.6357648 0.0006615061
0.02290058 0.6359562 0.0005166301
0.02004297 0.6361232 0.0003890542
0.01718331 0.6362658 0.0002790166
0.01432192 0.6363843 0.0001867521
0.01145911 0.6364788 0.0001124921
0.0085952 0.6365495 5.646454e-05
0.005730501 0.6365964 1.889368e-05
0.00286533 0.6366198 0
0 0.6366198 0

LINES 349 1047
2 0 1
2 1 2
2 2 3
2 3 4
2 4 5
2 5 6
2 6 7
2 7 8
2 8 9
2 9 10
2 10 11
2 11 12
2 12 13
2 13 14
2 14 15
2 15 16
2 16 17
2 17 18
2 18 19
2 19 20
2 20 21
2 21 22
2 22 23
2 23 24
2 24 25
2 25 26
2 26 27
2 27 28
2 28 29
2 29 30
2 30 31
2 31 32
2 32 33
2 33 34
2 34 35
2 35 36
2 36 37
2 37 38
2 38 39
2 39 40
2 40 41
2 41 42
2 42 43
2 43 44
2 44 45
2 45 46
2 46 47
2 47 48
2 48 49
2 49 50
2 50 51
2 51 52
2 52 53
2 53 54
2 54 55
2 55 56
2 56 57
2 57 58
2 58 59
2 59 60
2 60 61
2 61 62
2 62 63
2 63 64
2 64 65
2 65 66
2 66 67
2 67 68
2 68 69
2 69 70
2 70 71
2 71 72
2 72 73
2 73 74
2 74 75
2 75 76
2 76 77
2 77 78
2 78 79
2 79 80
2 80 81
2 81 82
2 82 83
2 83 84
2 84 85
2 85 86
2 86 87
2 87 88
2 88 89
2 89 90
2 90 91
2 91 92
2 92 93
2 93 94
2 94 95
2 95 96
2 96 97
2 97 98
2 98 99
2 99 100
2 100 101
2 101 102
2 102 103
2 103 104
2 104 105
2 105 106
2 106 107
2 107 108
2 108 109
2 109 110
2 110 111
2 111 112
2 112 113
2 113 114
2 114 115
2 115 116
2 116 117
2 117 118
2 118 119
2 119 120
2 120 121
2 121 122
2 122 123
2 123 124
2 124 125
2 125 126
2 126 127
2 127 128
2 128 129
2 129 130
2 130 131
2 131 132
2 132 133
2 133 134
2 134 135
2 135 136
2 136 137
2 137 138
2 138 139
2 139 140
2 140 141
2 141 142
2 142 143
2 143 144
2 144 145
2 145 146
2 146 147
2 147 148
2 148 149
2 149 150
2 150 151
2 151 152
2 152 153
2 153 154
2 154 155
2 155 156
2 156 157
2 157 158
2 158 159
2 159 160
2 160 161
2 161 162
2 162 163
2 163 164
2 164 165
2 165 166
2 166 167
2 167 168
2 168 169
2 169 170
2 170 171
2 171 172
2 172 173
2 173 174
2 174 175
2 175 176
2 176 177
2 177 178
2 178 179
2 179 180
2 180 181
2 181 182
2 182 183
2 183 184
2 184 185
2 185 186
2 186 187
2 187 188
2 188 189
2 189 190
2 190 191
2 191 192
2 192 193
2 193 194
2 194 195
2 195 196
2 196 197
2 197 198
2 198 199
2 199 200
2 200 201
2 201 202
2 202 203
2 203 204
2 204 205
2 205 206
2 206 207
2 207 208
2 208 209
2 209 210
2 210 211
2 211 212
2 212 213
2 213 214
2 214 215
2 215 216
2 216 217
2 217 218
2 218 219
2 219 220
2 220 221
2 221 222
2 222 223
2 223 224
2 224 225
2 225 226
2 226 227
2 227 228
2 228 229
2 229 230
2 230 231
2 231 232
2 232 233
2 233 234
2 234 235
2 235 236
2 236 237
2 237 238
2 238 239
2 239 240
2 240 241
2 241 242
2 242 243
2 243 244
2 244 245
2 245 246
2 246 247
2 247 248
2 248 249
2 249 250
2 250 251
2 251 252
2 252 253
2 253 254
2 254 255
2 255 256
2 256 257
2 257 258
2 258 259
2 259 260
2 260 261
2 261 262
2 262 263
2 263 264
2 264 265
2 265 266
2 266 267
2 267 268
2 268 269
2 269 270
2 270 271
2 271 272
2 272 273
2 273 274
2 274 275
2 275 276
2 276 277
2 277 278
2 278 279
2 279 280
2 280 281
2 281 282
2 282 283
2 283 284
2 284 285
2 285 286
2 286 287
2 287 288
2 288 289
2 289 290
2 290 291
2 291 292
2 292 293
2 293 294
2 294 295
2 295 296
2 296 297
2 297 298
2 298 299
2 299 300
2 300 301
2 301 302
2 302 303
2 303 304
2 304 305
2 305 306
2 306 307
2 307 308
2 308 309
2 309 310
2 310 311
2 311 312
2 312 313
2 313 314
2 314 315
2 315 316
2 316 317
2 317 318
2 318 319
2 319 320
2 320 321
2 321 322
2 322 323
2 323 324
2 324 325
2 325 326
2 326 327
2 327 328
2 328 329
2 329 330
2 330 331
2 331 332
2 332 333
2 333 334
2 334 335
2 335 336
2 336 337
2 337 338
2 338 339
2 339 340
2 340 341
2 341 342
2 342 343
2 343 344
2 344 345
2 345 346
2 346 347
2 347 348
2 348 349


POINT_DATA 350
SCALARS a FLOAT 1
LOOKUP_TABLE default
0.0005894628
0.0005894628
0.0005894628
0.0005894628
0.0005894628
0.0005894628
0.0005894628
0.0005894628
0.0005894628
0.0005894628
0.0005894628
0.0005894628
0.0005894628
0.0005894628
0.0005894628
0.0005894628
0.0005894628
0.0005894628
0.0005894628
0.0005894628
0.0005894628
0.0005894628
0.0005894628
0.0005894628
0.0005894628
0.0005894628
0.0005894628
0.0005894628
0.0005894628
0.0005894628
0.0005894628
0.0005894628
0.0005894628
0.0005894628
0.0005894628
0.0005894628
0.0005894628
0.0005894628
0.0005894628
0.0005894628
0.0005894628
0.0005894628
0.0005894628
0.0005894628
0.0005894628
0.0005894628
0.0005894628
0.0005894628
0.0005894628
0.0005894628
0.0005894628
0.0005894628
0.0005894628
0.0005894628
0.0005894628
0.0005894628
0.0005894628
0.0005894628
0.0005894628
0.0005894628
0.0005894628
0.0005894628
0.0005894628
0.0005894628
0.0005894628
0.0005894628
0.0005894628
0.0005894628
0.0005894628
0.0005894628
0.0005894628
0.0005894628
0.0005894628
0.0005894628
0.0005894628
0.0005894628
0.0005894628
0.0005894628
0.0005894628
0.0005894628
0.0005894628
0.0005894628
0.0005894628
0.0005894628
0.0005894628
0.0005894628
0.0005894628
0.0005894628
0.0005894628
0.0005894628
0.0005894628
0.0005894628
0.0005894628
0.0005894628
0.0005894628
0.0005894628
0.0005894628
0.0005894628
0.0005894628
0.0005894628
0.0005894628
0.0005894628
0.0005894628
0.0005894628
0.0005894628
0.0005894628
0.0005894628
0.0005894628
0.0005894628
0.0005894628
0.0005894628
0.0005894628
0.0005894628
0.0005894628
0.0005894628
0.0005894628
0.0005894628
0.0005894628
0.0005894628
0.0005894628
0.0005894628
0.0005894628
0.0005894628
0.0005894628
0.0005894628
0.0005894628
0.0005894628
0.0005894628
0.0005894628
0.0005894628
0.0005894628
0.0005894628
0.0005894628
0.0005894628
0.0005894628
0.0005894628
0.0005894628
0.0005894628
0.0005894628
0.0005894628
0.0005894628
0.0005894628
0.0005894628
0.0005894628
0.0005894628
0.0005894628
0.0005894628
0.0005894628
0.0005894628
0.0005894628
0.0005894628
0.0005894628
0.0005894628
0.0005894628
0.0005894628
0.0005894628
0.0005894628
0.0005894628
0.0005894628
0.0005894628
0.0005894628
0.0005894628
0.0005894628
0.0005894628
0.0005894628
0.0005894628
0.0005894628
0.0005894628
0.0005894628
0.0005894628
0.0005894628
0.0005894628
0.0005894628
0.0005894628
0.0005894628
0.0005894628
0.0005894628
0.0005894628
0.0005894628
0.0005894628
0.0005894628
0.0005894628
0.0005894628
0.0005894628
0.0005894628
0.0005894628
0.0005894628
0.0005894628
0.0005894628
0.0005894628
0.0005894628
0.0005894628
0.0005894628
0.0005894628
0.0005894628
0.0005894628
0.0005894628
0.0005894628
0.0005894628
0.0005894628
0.0005894628
0.0005894628
0.0005894628
0.0005894628
0.0005894628
0.0005894628
0.0005894628
0.0005894628
0.0005894628
0.0005894628
0.0005894628
0.0005894628
0.0005894628
0.0005894628
0.0005894628
0.0005894628
0.0005894628
0.0005894628
0.0005894628
0.0005894628
0.0005894628
0.0005894628
0.0005894628
0.0005894628
0.0005894628
0.0005894628
0.0005894628
0.0005894628
0.0005894628
0.0005894628
0.0005894628
0.0005894628
0.0005894628
0.0005894628
0.0005894628
0.0005894628
0.0005894628
0.0005894628
0.0005894628
0.0005894628
0.0005894628
0.0005894628
0.0005894628
0.0005894628
0.0005894628
0.0005894628
0.0005894628
0.0005894628
0.0005894628
0.0005894628
0.0005894628
0.0005894628
0.0005894628
0.0005894628
0.0005894628
0.0005894628
0.0005894628
0.0005894628
0.0005894628
0.0005894628
0.0005894628
0.0005894628
0.0005894628
0.0005894628
0.0005894628
0.0005894628
0.0005894628
0.0005894628
0.0005894628
0.0005894628
0.0005894628
0.0005894628
0.0005894628
0.0005894628
0.0005894628
0.0005894628
0.0005894628
0.0005894628
0.0005894628
0.0005894628
0.0005894628
0.0005894628
0.0005894628
0.0005894628
0.0005894628
0.0005894628
0.0005894628
0.0005894628
0.0005894628
0.0005894628
0.0005894628
0.0005894628
0.0005894628
0.0005894628
0.0005894628
0.0005894628
0.0005894628
0.0005894628
0.0005894628
0.0005894628
0.0005894628
0.0005894628
0.0005894628
0.0005894628
0.0005894628
0.0005894628
0.0005894628
0.0005894628
0.0005894628
0.0005894628
0.0005894628
0.0005894628
0.0005894628
0.0005894628
0.0005894628
0.0005894628
0.0005894628
0.0005894628
0.0005894628
0.0005894628
0.0005894628
0.0005894628
0.0005894628
0.0005894628
0.0005894628
0.0005894628
0.0005894628
0.0005894628
0.0005894628
0.0005894628
0.0005894628
0.0005894628
0.0005894628
0.0005894628
0.0005894628
0.0005894628
0.0005894628
0.0005894628
0.0005894628
0.0005894628
0.0005894628
0.0005894628
0.0005894628
0.0005894628
0.0005894628
0.0005894628
0.0005894628
0.0005894628
0.0005894628
0.0005894628


SCALARS b FLOAT 1
LOOKUP_TABLE default
0.02357851
0.02357851
0.02357851
0.02357851
0.02357851
0.02357851
0.02357851
0.02357851
0.02357851
0.02357851
0.02357851
0.02357851
0.02357851
0.02357851
0.02357851
0.02357851
0.02357851
0.02357851
0.02357851
0.02357851
0.02357851
0.02357851
0.02357851
0.02357851
0.02357851
0.02357851
0.02357851
0.02357851
0.02357851
0.02357851
0.02357851
0.02357851
0.02357851
0.02357851
0.02357851
0.02357851
0.02357851
0.02357851
0.02357851
0.02357851
0.02357851
0.02357851
0.02357851
0.02357851
0.02357851
0.02357851
0.02357851
0.02357851
0.02357851
0.02357851
0.02357851
0.02357851
0.02357851
0.02357851
0.02357851
0.02357851
0.02357851
0.02357851
0.02357851
0.02357851
0.02357851
0.02357851
0.02357851
0.02357851
0.02357851
0.02357851
0.02357851
0.02357851
0.02357851
0.02357851
0.02357851
0.02357851
0.02357851
0.02357851
0.02357851
0.02357851
0.02357851
0.02357851
0.02357851
0.02357851
0.02357851
0.02357851
0.02357851
0.02357851
0.02357851
0.02357851
0.02357851
0.02357851
0.02357851
0.02357851
0.02357851
0.02357851
0.02357851
0.02357851
0.02357851
0.02357851
0.02357851
0.02357851
0.02357851
0.02357851
0.02357851
0.02357851
0.02357851
0.02357851
0.02357851
0.02357851
0.02357851
0.02357851
0.02357851
0.02357851
0.02357851
0.02357851
0.02357851
0.02357851
0.02357851
0.02357851
0.02357851
0.02357851
0.02357851
0.02357851
0.02357851
0.02357851
0.02357851
0.02357851
0.02357851
0.02357851
0.02357851
0.02357851
0.02357851
0.02357851
0.02357851
0.02357851
0.02357851
0.02357851
0.02357851
0.02357851
0.02357851
0.02357851
0.02357851
0.02357851
0.02357851
0.02357851
0.02357851
0.02357851
0.02357851
0.02357851
0.02357851
0.02357851
0.02357851
0.02357851
0.02357851
0.02357851
0.02357851
0.02357851
0.02357851
0.02357851
0.02357851
0.02357851
0.02357851
0.02357851
0.02357851
0.02357851
0.02357851
0.02357851
0.02357851
0.02357851
0.02357851
0.02357851
0.02357851
0.02357851
0.02357851
0.02357851
0.02357851
0.02357851
0.02357851
0.02357851
0.02357851
0.02357851
0.02357851
0.02357851
0.02357851
0.02357851
0.02357851
0.02357851
0.02357851
0.02357851
0.02357851
0.02357851
0.02357851
0.02357851
0.02357851
0.02357851
0.02357851
0.02357851
0.02357851
0.02357851
0.02357851
0.02357851
0.02357851
0.02357851
0.02357851
0.02357851
0.02357851
0.02357851
0.02357851
0.02357851
0.02357851
0.02357851
0.02357851
0.02357851
0.02357851
0.02357851
0.02357851
0.02357851
0.02357851
0.02357851
0.02357851
0.02357851
0.02357851
0.02357851
0.02357851
0.02357851
0.02357851
0.02357851
0.02357851
0.02357851
0.02357851
0.02357851
0.02357851
0.02357851
0.02357851
0.02357851
0.02357851
0.02357851
0.02357851
0.02357851
0.02357851
0.02357851
0.02357851
0.02357851
0.02357851
0.02357851
0.02357851
0.02357851
0.02357851
0.02357851
0.02357851
0.02357851
0.02357851
0.02357851
0.02357851
0.02357851
0.02357851
0.02357851
0.02357851
0.02357851
0.02357851
0.02357851
0.02357851
0.02357851
0.02357851
0.02357851
0.02357851
0.02357851
0.02357851
0.02357851
0.02357851
0.02357851
0.02357851
0.02357851
0.02357851
0.02357851
0.02357851
0.02357851
0.02357851
0.02357851
0.02357851
0.02357851
0.02357851
0.02357851
0.02357851
0.02357851
0.02357851
0.02357851
0.02357851
0.02357851
0.02357851
0.02357851
0.02357851
0.02357851
0.02357851
0.02357851
0.02357851
0.02357851
0.02357851
0.02357851
0.02357851
0.02357851
0.02357851
0.02357851
0.02357851
0.02357851
0.02357851
0.02357851
0.02357851
0.02357851
0.02357851
0.02357851
0.02357851
0.02357851
0.02357851
0.02357851
0.02357851
0.02357851
0.02357851
0.02357851
0.02357851
0.02357851
0.02357851
0.02357851
0.02357851
0.02357851
0.02357851
0.02357851
0.02357851
0.02357851
0.02357851
0.02357851
0.02357851
0.02357851
0.02357851
0.02357851
0.02357851
0.02357851
0.02357851
0.02357851
0.02357851
0.02357851
0.02357851
0.02357851
0.02357851
0.02357851
0.02357851
0.02357851
0.02357851
0.02357851
0.02357851
0.02357851
0.02357851
0.02357851


VECTORS d1 FLOAT
0 0.7745031 0.6325702
-0.01048949 0.7802393 0.6253932
-0.02097738 0.7857993 0.6181257
-0.03146094 0.7911828 0.6107701
-0.04193749 0.7963893 0.6033285
-0.05240438 0.8014189 0.5958033
-0.062859 0.8062712 0.5881968
-0.07329878 0.8109463 0.5805112
-0.0837212 0.8154442 0.5727491
-0.09412376 0.8197649 0.5649126
-0.104504 0.8239085 0.5570042
-0.1148596 0.8278753 0.5490262
-0.1251881 0.8316655 0.540981
-0.1354873 0.8352794 0.532871
-0.1457548 0.8387174 0.5246987
-0.1559885 0.8419799 0.5164663
-0.1661862 0.8450675 0.5081763
-0.1763457 0.8479806 0.4998311
-0.186465 0.8507199 0.4914331
-0.1965421 0.853286 0.4829847
-0.206575 0.8556797 0.4744882
-0.2165617 0.8579016 0.4659461
-0.2265004 0.8599527 0.4573608
-0.2363892 0.8618338 0.4487346
-0.2462264 0.8635457 0.4400698
-0.2560102 0.8650894 0.4313689
-0.2657389 0.8664659 0.4226341
-0.275411 0.8676763 0.4138679
-0.2850248 0.8687216 0.4050725
-0.2945789 0.8696028 0.3962502
-0.3040716 0.8703213 0.3874033
-0.3135017 0.8708781 0.378534
-0.3228677 0.8712745 0.3696447
-0.3321683 0.8715117 0.3607376
-0.3414021 0.871591 0.3518149
-0.3505681 0.8715138 0.3428787
-0.3596649 0.8712813 0.3339313
-0.3686915 0.8708949 0.3249748
-0.3776468 0.8703561 0.3160113
-0.3865296 0.8696663 0.307043
-0.3953391 0.8688269 0.2980719
-0.4040743 0.8678393 0.2891001
-0.4127343 0.8667051 0.2801296
-0.4213182 0.8654258 0.2711625
-0.4298252 0.8640029 0.2622008
-0.4382545 0.862438 0.2532463
-0.4466055 0.8607325 0.2443011
-0.4548774 0.8588882 0.235367
-0.4630697 0.8569065 0.226446
-0.4711816 0.854789 0.2175398
-0.4792127 0.8525375 0.2086504
-0.4871625 0.8501534 0.1997795
-0.4950304 0.8476385 0.1909289
-0.5028161 0.8449944 0.1821003
-0.5105191 0.8422226 0.1732955
-0.5181391 0.8393249 0.1645162
-0.5256758 0.8363029 0.1557639
-0.5331288 0.8331583 0.1470404
-0.5404981 0.8298927 0.1383473
-0.5477832 0.8265078 0.129686
-0.5549841 0.8230052 0.1210583
-0.5621006 0.8193866 0.1124655
-0.5691326 0.8156537 0.1039092
-0.5760799 0.8118081 0.09539091
-0.5829427 0.8078516 0.08691196
-0.5897208 0.8037856 0.0784738
-0.5964142 0.7996119 0.0700778
-0.603023 0.7953321 0.06172532
-0.6095473 0.7909479 0.05341767
-0.6159871 0.7864609 0.04515616
-0.6223426 0.7818727 0.03694206
-0.6286139 0.777185 0.02877659
-0.6348011 0.7723993 0.02066099
-0.6409045 0.7675172 0.01259643
-0.6469244 0.7625404 0.004584069
-0.6528608 0.7574704 -0.003374948
-0.6587141 0.7523088 -0.01127952
-0.6644846 0.7470571 -0.01912856
-0.6701725 0.741717 -0.026921
-0.6757782 0.7362899 -0.03465583
-0.6813021 0.7307773 -0.04233203
-0.6867444 0.7251808 -0.04994861
-0.6921056 0.719502 -0.05750462
-0.697386 0.7137422 -0.06499913
-0.7025861 0.7079029 -0.07243121
-0.7077062 0.7019857 -0.07979998
-0.7127469 0.6959919 -0.08710458
-0.7177085 0.689923 -0.09434416
-0.7225915 0.6837804 -0.1015179
-0.7273964 0.6775656 -0.108625
-0.7321236 0.6712799 -0.1156647
-0.7367738 0.6649246 -0.1226362
-0.7413473 0.6585012 -0.1295388
-0.7458447 0.6520111 -0.1363717
-0.7502665 0.6454554 -0.1431344
-0.7546133 0.6388356 -0.149826
-0.7588856 0.6321529 -0.1564459
-0.7630839 0.6254087 -0.1629936
-0.7672088 0.6186041 -0.1694683
-0.7712609 0.6117406 -0.1758696
-0.7752407 0.6048192 -0.1821967
-0.7791488 0.5978412 -0.1884491
-0.7829858 0.5908078 -0.1946263
-0.7867522 0.5837203 -0.2007277
-0.7904487 0.5765797 -0.2067529
-0.7940757 0.5693873 -0.2127013
-0.797634 0.5621442 -0.2185724
-0.8011241 0.5548514 -0.2243657
-0.8045466 0.5475103 -0.2300809
-0.8079021 0.5401217 -0.2357174
-0.8111912 0.5326868 -0.2412749
-0.8144144 0.5252068 -0.2467529
-0.8175724 0.5176825 -0.252151
-0.8206658 0.5101151 -0.2574689
-0.8236951 0.5025056 -0.2627061
-0.8266609 0.494855 -0.2678623
-0.8295639 0.4871643 -0.2729372
-0.8324046 0.4794344 -0.2779303
-0.8351835 0.4716664 -0.2828415
-0.8379013 0.4638611 -0.2876703
-0.8405586 0.4560195 -0.2924165
-0.8431559 0.4481426 -0.2970798
-0.8456937 0.4402312 -0.3016599
-0.8481726 0.4322862 -0.3061565
-0.8505933 0.4243085 -0.3105693
-0.8529562 0.4162991 -0.3148982
-0.8552618 0.4082586 -0.3191428
-0.8575108 0.400188 -0.323303
-0.8597036 0.3920881 -0.3273784
-0.8618408 0.3839598 -0.3313689
-0.8639228 0.3758037 -0.3352743
-0.8659503 0.3676208 -0.3390944
-0.8679236 0.3594118 -0.342829
-0.8698434 0.3511774 -0.3464778
-0.87171 0.3429185 -0.3500408
-0.873524 0.3346357 -0.3535177
-0.8752858 0.3263299 -0.3569084
-0.8769959 0.3180017 -0.3602128
-0.8786547 0.3096518 -0.3634306
-0.8802626 0.301281 -0.3665617
-0.8818202 0.2928899 -0.369606
-0.8833278 0.2844793 -0.3725634
-0.8847859 0.2760498 -0.3754337
-0.8861948 0.267602 -0.3782168
-0.8875549 0.2591367 -0.3809126
-0.8888667 0.2506546 -0.383521
-0.8901304 0.2421561 -0.3860419
-0.8913464 0.233642 -0.3884751
-0.8925152 0.2251129 -0.3908207
-0.893637 0.2165695 -0.3930784
-0.8947121 0.2080122 -0.3952482
-0.8957409 0.1994418 -0.3973301
-0.8967237 0.1908588 -0.3993239
-0.8976607 0.1822639 -0.4012296
-0.8985522 0.1736576 -0.403047
-0.8993986 0.1650404 -0.4047763
-0.9002 0.1564131 -0.4064172
-0.9009567 0.147776 -0.4079697
-0.9016689 0.1391299 -0.4094337
-0.9023369 0.1304752 -0.4108093
-0.9029608 0.1218126 -0.4120964
-0.9035409 0.1131425 -0.4132949
-0.9040772 0.1044655 -0.4144047
-0.9045701 0.09578223 -0.4154259
-0.9050196 0.08709312 -0.4163585
-0.9054258 0.07839875 -0.4172023
-0.905789 0.06969965 -0.4179573
-0.9061091 0.06099635 -0.4186236
-0.9063864 0.05228938 -0.4192011
-0.9066208 0.04357927 -0.4196897
-0.9068126 0.03486655 -0.4200896
-0.9069616 0.02615174 -0.4204006
-0.9070681 0.01743536 -0.4206227
-0.9071319 0.008717943 -0.420756
-0.9071532 6.702972e-14 -0.4208005
-0.9071319 -0.008717943 -0.420756
-0.9070681 -0.01743536 -0.4206227
-0.9069616 -0.02615174 -0.4204006
-0.9068126 -0.03486655 -0.4200896
-0.9066208 -0.04357927 -0.4196897
-0.9063864 -0.05228938 -0.4192011
-0.9061091 -0.06099635 -0.4186236
-0.905789 -0.06969965 -0.4179573
-0.9054258 -0.07839875 -0.4172023
-0.9050196 -0.08709312 -0.4163585
-0.9045701 -0.09578223 -0.4154259
-0.9040772 -0.1044655 -0.4144047
-0.9035409 -0.1131425 -0.4132949
-0.9029608 -0.1218126 -0.4120964
-0.9023369 -0.1304752 -0.4108093
-0.9016689 -0.1391299 -0.4094337
-0.9009567 -0.147776 -0.4079697
-0.9002 -0.1564131 -0.4064172
-0.8993986 -0.1650404 -0.4047763
-0.8985522 -0.1736576 -0.403047
-0.8976607 -0.1822639 -0.4012296
-0.8967237 -0.1908588 -0.3993239
-0.8957409 -0.1994418 -0.3973301
-0.8947121 -0.2080122 -0.3952482
-0.893637 -0.2165695 -0.3930784
-0.8925152 -0.2251129 -0.3908207
-0.8913464 -0.233642 -0.3884751
-0.8901304 -0.2421561 -0.3860419
-0.8888667 -0.2506546 -0.383521
-0.8875549 -0.2591367 -0.3809126
-0.8861948 -0.267602 -0.3782168
-0.8847859 -0.2760498 -0.3754337
-0.8833278 -0.2844793 -0.3725634
-0.8818202 -0.2928899 -0.369606
-0.8802626 -0.301281 -0.3665617
-0.8786547 -0.3096518 -0.3634306
-0.8769959 -0.3180017 -0.3602128
-0.8752858 -0.3263299 -0.3569084
-0.873524 -0.3346357 -0.3535177
-0.87171 -0.3429185 -0.3500408
-0.8698434 -0.3511774 -0.3464778
-0.8679236 -0.3594118 -0.342829
-0.8659503 -0.3676208 -0.3390944
-0.8639228 -0.3758037 -0.3352743
-0.8618408 -0.3839598 -0.3313689
-0.8597036 -0.3920881 -0.3273784
-0.8575108 -0.400188 -0.323303
-0.8552618 -0.4082586 -0.3191428
-0.8529562 -0.4162991 -0.3148982
-0.8505933 -0.4243085 -0.3105693