# vtk DataFile Version 2.0
Written badly by Kevin Korner
ASCII
DATASET POLYDATA
POINTS 350 FLOAT
0 0 0
0.00286533 0 0
0.005730513 2.464798e-05 1.507271e-05
0.008595261 7.403618e-05 4.502525e-05
0.01145928 0.0001482518 8.96631e-05
0.01432228 0.0002473768 0.0001487901
0.01718398 0.0003714885 0.0002222086
0.02004409 0.0005206587 0.0003097195
0.02290231 0.0006949548 0.0004111222
0.02575837 0.0008944388 0.000526215
0.02861198 0.001119168 0.0006547947
0.03146285 0.001369195 0.0007966572
0.03431071 0.001644566 0.0009515972
0.03715526 0.001945326 0.001119408
0.03999624 0.002271511 0.001299883
0.04283336 0.002623156 0.001492813
0.04566634 0.003000287 0.00169799
0.04849491 0.00340293 0.001915203
0.05131879 0.003831104 0.002144242
0.05413772 0.004284822 0.002384896
0.05695141 0.004764097 0.002636954
0.05975961 0.005268932 0.002900202
0.06256203 0.005799329 0.003174428
0.06535843 0.006355285 0.00345942
0.06814852 0.006936793 0.003754963
0.07093205 0.007543841 0.004060844
0.07370876 0.008176412 0.004376849
0.07647838 0.008834487 0.004702764
0.07924067 0.009518042 0.005038375
0.08199536 0.01022705 0.005383468
0.08474221 0.01096147 0.005737828
0.08748096 0.01172128 0.006101241
0.09021136 0.01250642 0.006473494
0.09293316 0.01331687 0.006854372
0.09564613 0.01415256 0.007243662
0.09835001 0.01501345 0.007641151
0.1010446 0.01589948 0.008046625
0.1037296 0.0168106 0.008459872
0.1064048 0.01774673 0.008880679
0.1090699 0.01870782 0.009308836
0.1117248 0.01969379 0.009744129
0.1143692 0.02070457 0.01018635
0.1170029 0.02174009 0.01063529
0.1196257 0.02280026 0.01109073
0.1222372 0.02388499 0.01155247
0.1248374 0.02499422 0.0120203
0.1274259 0.02612783 0.01249402
0.1300027 0.02728575 0.01297341
0.1325674 0.02846787 0.01345827
0.1351198 0.0296741 0.01394839
0.1376597 0.03090433 0.01444358
0.140187 0.03215846 0.01494362
0.1427015 0.03343639 0.01544832
0.1452028 0.03473799 0.01595747
0.1476909 0.03606317 0.01647088
0.1501654 0.03741179 0.01698834
0.1526264 0.03878375 0.01750966
0.1550734 0.04017893 0.01803464
0.1575064 0.04159719 0.01856308
0.1599251 0.04303842 0.01909479
0.1623294 0.04450248 0.01962957
0.1647191 0.04598924 0.02016724
0.167094 0.04749858 0.0207076
0.1694538 0.04903035 0.02125047
0.1717986 0.05058442 0.02179564
0.174128 0.05216064 0.02234294
0.1764419 0.05375888 0.02289219
0.1787401 0.05537899 0.02344318
0.1810224 0.05702082 0.02399575
0.1832888 0.05868423 0.02454972
0.1855389 0.06036906 0.02510489
0.1877728 0.06207517 0.02566109
0.1899901 0.06380239 0.02621814
0.1921907 0.06555058 0.02677587
0.1943746 0.06731957 0.0273341
0.1965414 0.06910921 0.02789266
0.1986912 0.07091932 0.02845138
0.2008237 0.07274976 0.02901008
0.2029387 0.07460035 0.0295686
0.2050362 0.07647093 0.03012677
0.207116 0.07836133 0.03068443
0.209178 0.08027138 0.0312414
0.2112219 0.08220091 0.03179754
0.2132477 0.08414975 0.03235266
0.2152553 0.08611772 0.03290663
0.2172445 0.08810464 0.03345927
0.2192151 0.09011035 0.03401044
0.2211671 0.09213466 0.03455997
0.2231004 0.09417739 0.03510772
0.2250147 0.09623836 0.03565353
0.22691 0.09831739 0.03619726
0.2287861 0.1004143 0.03673875
0.230643 0.1025289 0.03727785
0.2324804 0.104661 0.03781443
0.2342984 0.1068104 0.03834835
0.2360968 0.108977 0.03887945
0.2378754 0.1111605 0.03940759
0.2396342 0.1133607 0.03993265
0.241373 0.1155775 0.04045448
0.2430918 0.1178107 0.04097295
0.2447904 0.1200601 0.04148793
0.2464688 0.1223254 0.04199928
0.2481268 0.1246065 0.04250687
0.2497643 0.1269032 0.04301058
0.2513813 0.1292153 0.04351028
0.2529776 0.1315426 0.04400584
0.2545532 0.1338849 0.04449715
0.2561079 0.136242 0.04498407
0.2576417 0.1386137 0.0454665
0.2591545 0.1409997 0.04594431
0.2606461 0.1434 0.04641738
0.2621166 0.1458143 0.04688561
0.2635657 0.1482423 0.04734888
0.2649935 0.150684 0.04780707
0.2663999 0.153139 0.04826009
0.2677847 0.1556072 0.04870782
0.2691479 0.1580883 0.04915015
0.2704894 0.1605822 0.04958698
0.2718091 0.1630887 0.05001822
0.2731071 0.1656075 0.05044375
0.2743831 0.1681385 0.05086349
0.2756371 0.1706814 0.05127733
0.2768691 0.173236 0.05168517
0.278079 0.1758021 0.05208694
0.2792667 0.1783795 0.05248252
0.2804321 0.1809679 0.05287183
0.2815753 0.1835673 0.0532548
0.2826961 0.1861773 0.05363131
0.2837944 0.1887978 0.0540013
0.2848702 0.1914285 0.05436469
0.2859235 0.1940692 0.05472138
0.2869542 0.1967198 0.05507129
0.2879623 0.1993799 0.05541436
0.2889476 0.2020494 0.05575051
0.2899101 0.2047281 0.05607965
0.2908499 0.2074157 0.05640173
0.2917667 0.210112 0.05671666
0.2926607 0.2128169 0.05702438
0.2935317 0.2155301 0.05732482
0.2943797 0.2182513 0.05761792
0.2952046 0.2209804 0.05790361
0.2960064 0.2237171 0.05818183
0.2967851 0.2264613 0.05845252
0.2975406 0.2292127 0.05871562
0.2982729 0.2319711 0.05897107
0.298982 0.2347362 0.05921883
0.2996677 0.2375079 0.05945883
0.3003301 0.2402859 0.05969103
0.3009692 0.24307 0.05991538
0.3015849 0.2458601 0.06013182
0.3021771 0.2486557 0.06034031
0.3027459 0.2514569 0.06054081
0.3032912 0.2542633 0.06073328
0.303813 0.2570746 0.06091767
0.3043113 0.2598908 0.06109395
0.304786 0.2627115 0.06126208
0.3052371 0.2655366 0.06142201
0.3056646 0.2683658 0.06157373
0.3060685 0.2711989 0.06171719
0.3064487 0.2740357 0.06185237
0.3068053 0.2768759 0.06197924
0.3071381 0.2797193 0.06209778
0.3074473 0.2825658 0.06220794
0.3077327 0.2854151 0.06230973
0.3079944 0.2882669 0.0624031
0.3082323 0.2911211 0.06248805
0.3084465 0.2939774 0.06256456
0.3086369 0.2968355 0.0626326
0.3088036 0.2996954 0.06269217
0.3089464 0.3025567 0.06274326
0.3090655 0.3054193 0.06278584
0.3091607 0.3082828 0.06281992
0.3092322 0.3111471 0.06284549
0.3092798 0.314012 0.06286253
0.3093036 0.3168772 0.06287106
0.3093036 0.3197426 0.06287106
0.3092798 0.3226078 0.06286253
0.3092322 0.3254727 0.06284549
0.3091607 0.328337 0.06281992
0.3090655 0.3312005 0.06278584
0.3089464 0.3340631 0.06274326
0.3088036 0.3369244 0.06269217
0.3086369 0.3397842 0.0626326
0.3084465 0.3426424 0.06256456
0.3082323 0.3454987 0.06248805
0.3079944 0.3483529 0.0624031
0.3077327 0.3512047 0.06230973
0.3074473 0.354054 0.06220794
0.3071381 0.3569004 0.06209778
0.3068053 0.3597439 0.06197924
0.3064487 0.3625841 0.06185237
0.3060685 0.3654209 0.06171719
0.3056646 0.368254 0.06157373
0.3052371 0.3710832 0.06142201
0.304786 0.3739082 0.06126208
0.3043113 0.376729 0.06109395
0.303813 0.3795451 0.06091767
0.3032912 0.3823565 0.06073328
0.3027459 0.3851629 0.06054081
0.3021771 0.387964 0.06034031
0.3015849 0.3907597 0.06013182
0.3009692 0.3935497 0.05991538
0.3003301 0.3963339 0.05969103
0.2996677 0.3991119 0.05945883
0.298982 0.4018836 0.05921883
0.2982729 0.4046487 0.05897107
0.2975406 0.4074071 0.05871562
0.2967851 0.4101585 0.05845252
0.2960064 0.4129026 0.05818183
0.2952046 0.4156394 0.05790361
0.2943797 0.4183685 0.05761792
0.2935317 0.4210897 0.05732482
0.2926607 0.4238029 0.05702438
0.2917667 0.4265077 0.05671666
0.2908499 0.4292041 0.05640173
0.2899101 0.4318917 0.05607965
0.2889476 0.4345704 0.05575051
0.2879623 0.4372399 0.05541436
0.2869542 0.4399 0.05507129
0.2859235 0.4425505 0.05472138
0.2848702 0.4451913 0.05436469
0.2837944 0.447822 0.0540013
0.2826961 0.4504424 0.05363131
0.2815753 0.4530525 0.0532548
0.2804321 0.4556518 0.05287183
0.2792667 0.4582403 0.05248252
0.278079 0.4608177 0.05208694
0.2768691 0.4633838 0.05168517
0.2756371 0.4659384 0.05127733
0.2743831 0.4684813 0.05086349
0.2731071 0.4710122 0.05044375
0.2718091 0.4735311 0.05001822
0.2704894 0.4760375 0.04958698
0.2691479 0.4785314 0.04915015
0.2677847 0.4810126 0.04870782
0.2663999 0.4834808 0.04826009
0.2649935 0.4859358 0.04780707
0.2635657 0.4883774 0.04734888
0.2621166 0.4908055 0.04688561
0.2606461 0.4932198 0.04641738
0.2591545 0.49562 0.04594431
0.2576417 0.4980061 0.0454665
0.2561079 0.5003778 0.04498407
0.2545532 0.5027349 0.04449715
0.2529776 0.5050772 0.04400584
0.2513813 0.5074045 0.04351028
0.2497643 0.5097166 0.04301058
0.2481268 0.5120133 0.04250687
0.2464688 0.5142944 0.04199928
0.2447904 0.5165597 0.04148793
0.2430918 0.5188091 0.04097295
0.241373 0.5210422 0.04045448
0.2396342 0.5232591 0.03993265
0.2378754 0.5254593 0.03940759
0.2360968 0.5276428 0.03887945
0.2342984 0.5298093 0.03834835
0.2324804 0.5319588 0.03781443
0.230643 0.5340909 0.03727785
0.2287861 0.5362055 0.03673875
0.22691 0.5383024 0.03619726
0.2250147 0.5403814 0.03565353
0.2231004 0.5424424 0.03510772
0.2211671 0.5444851 0.03455997
0.2192151 0.5465094 0.03401044
0.2172445 0.5485151 0.03345927
0.2152553 0.5505021 0.03290663
0.2132477 0.55247 0.03235266
0.2112219 0.5544189 0.03179754
0.209178 0.5563484 0.0312414
0.207116 0.5582584 0.03068443
0.2050362 0.5601488 0.03012677
0.2029387 0.5620194 0.0295686
0.2008237 0.56387 0.02901008
0.1986912 0.5657004 0.02845138
0.1965414 0.5675106 0.02789266
0.1943746 0.5693002 0.0273341
0.1921907 0.5710692 0.02677587
0.1899901 0.5728174 0.02621814
0.1877728 0.5745446 0.02566109
0.1855389 0.5762507 0.02510489
0.1832888 0.5779355 0.02454972
0.1810224 0.5795989 0.02399575
0.1787401 0.5812408 0.02344318
0.1764419 0.5828609 0.02289219
0.174128 0.5844591 0.02234294
0.1717986 0.5860354 0.02179564
0.1694538 0.5875894 0.02125047
0.167094 0.5891212 0.0207076
0.1647191 0.5906305 0.02016724
0.1623294 0.5921173 0.01962957
0.1599251 0.5935814 0.01909479
0.1575064 0.5950226 0.01856308
0.1550734 0.5964408 0.01803464
0.1526264 0.597836 0.01750966
0.1501654 0.599208 0.01698834
0.1476909 0.6005566 0.01647088
0.1452028 0.6018818 0.01595747
0.1427015 0.6031834 0.01544832
0.140187 0.6044613 0.01494362
0.1376597 0.6057154 0.01444358
0.1351198 0.6069457 0.01394839
0.1325674 0.6081519 0.01345827
0.1300027 0.609334 0.01297341
0.1274259 0.6104919 0.01249402
0.1248374 0.6116256 0.0120203
0.1222372 0.6127348 0.01155247
0.1196257 0.6138195 0.01109073
0.1170029 0.6148797 0.01063529
0.1143692 0.6159152 0.01018635
0.1117248 0.616926 0.009744129
0.1090699 0.617912 0.009308836
0.1064048 0.618873 0.008880679
0.1037296 0.6198092 0.008459872
0.1010446 0.6207203 0.008046625
0.09835001 0.6216063 0.007641151
0.09564613 0.6224672 0.007243662
0.09293316 0.6233029 0.006854372
0.09021136 0.6241133 0.006473494
0.08748096 0.6248985 0.006101241
0.08474221 0.6256583 0.005737828
0.08199536 0.6263927 0.005383468
0.07924067 0.6271017 0.005038375
0.07647838 0.6277853 0.004702764
0.07370876 0.6284434 0.004376849
0.07093205 0.6290759 0.004060844
0.06814852 0.629683 0.003754963
0.06535843 0.6302645 0.00345942
0.06256203 0.6308204 0.003174428
0.05975961 0.6313508 0.002900202
0.05695141 0.6318557 0.002636954
0.05413772 0.6323349 0.002384896
0.05131879 0.6327887 0.002144242
0.04849491 0.6332168 0.001915203
0.04566634 0.6336195 0.00169799
0.04283336 0.6339966 0.001492813
0.03999624 0.6343483 0.001299883
0.03715526 0.6346744 0.001119408
0.03431071 0.6349752 0.0009515972
0.03146285 0.6352506 0.0007966572
0.02861198 0.6355006 0.0006547947
0.02575837 0.6357253 0.000526215
0.02290231 0.6359248 0.0004111222
0.02004409 0.6360991 0.0003097195
0.01718398 0.6362483 0.0002222086
0.01432228 0.6363724 0.0001487901
0.01145928 0.6364715 8.96631e-05
0.008595261 0.6365457 4.502525e-05
0.005730513 0.6365951 1.507271e-05
0.00286533 0.6366198 0
0 0.6366198 0

LINES 349 1047
2 0 1
2 1 2
2 2 3
2 3 4
2 4 5
2 5 6
2 6 7
2 7 8
2 8 9
2 9 10
2 10 11
2 11 12
2 12 13
2 13 14
2 14 15
2 15 16
2 16 17
2 17 18
2 18 19
2 19 20
2 20 21
2 21 22
2 22 23
2 23 24
2 24 25
2 25 26
2 26 27
2 27 28
2 28 29
2 29 30
2 30 31
2 31 32
2 32 33
2 33 34
2 34 35
2 35 36
2 36 37
2 37 38
2 38 39
2 39 40
2 40 41
2 41 42
2 42 43
2 43 44
2 44 45
2 45 46
2 46 47
2 47 48
2 48 49
2 49 50
2 50 51
2 51 52
2 52 53
2 53 54
2 54 55
2 55 56
2 56 57
2 57 58
2 58 59
2 59 60
2 60 61
2 61 62
2 62 63
2 63 64
2 64 65
2 65 66
2 66 67
2 67 68
2 68 69
2 69 70
2 70 71
2 71 72
2 72 73
2 73 74
2 74 75
2 75 76
2 76 77
2 77 78
2 78 79
2 79 80
2 80 81
2 81 82
2 82 83
2 83 84
2 84 85
2 85 86
2 86 87
2 87 88
2 88 89
2 89 90
2 90 91
2 91 92
2 92 93
2 93 94
2 94 95
2 95 96
2 96 97
2 97 98
2 98 99
2 99 100
2 100 101
2 101 102
2 102 103
2 103 104
2 104 105
2 105 106
2 106 107
2 107 108
2 108 109
2 109 110
2 110 111
2 111 112
2 112 113
2 113 114
2 114 115
2 115 116
2 116 117
2 117 118
2 118 119
2 119 120
2 120 121
2 121 122
2 122 123
2 123 124
2 124 125
2 125 126
2 126 127
2 127 128
2 128 129
2 129 130
2 130 131
2 131 132
2 132 133
2 133 134
2 134 135
2 135 136
2 136 137
2 137 138
2 138 139
2 139 140
2 140 141
2 141 142
2 142 143
2 143 144
2 144 145
2 145 146
2 146 147
2 147 148
2 148 149
2 149 150
2 150 151
2 151 152
2 152 153
2 153 154
2 154 155
2 155 156
2 156 157
2 157 158
2 158 159
2 159 160
2 160 161
2 161 162
2 162 163
2 163 164
2 164 165
2 165 166
2 166 167
2 167 168
2 168 169
2 169 170
2 170 171
2 171 172
2 172 173
2 173 174
2 174 175
2 175 176
2 176 177
2 177 178
2 178 179
2 179 180
2 180 181
2 181 182
2 182 183
2 183 184
2 184 185
2 185 186
2 186 187
2 187 188
2 188 189
2 189 190
2 190 191
2 191 192
2 192 193
2 193 194
2 194 195
2 195 196
2 196 197
2 197 198
2 198 199
2 199 200
2 200 201
2 201 202
2 202 203
2 203 204
2 204 205
2 205 206
2 206 207
2 207 208
2 208 209
2 209 210
2 210 211
2 211 212
2 212 213
2 213 214
2 214 215
2 215 216
2 216 217
2 217 218
2 218 219
2 219 220
2 220 221
2 221 222
2 222 223
2 223 224
2 224 225
2 225 226
2 226 227
2 227 228
2 228 229
2 229 230
2 230 231
2 231 232
2 232 233
2 233 234
2 234 235
2 235 236
2 236 237
2 237 238
2 238 239
2 239 240
2 240 241
2 241 242
2 242 243
2 243 244
2 244 245
2 245 246
2 246 247
2 247 248
2 248 249
2 249 250
2 250 251
2 251 252
2 252 253
2 253 254
2 254 255
2 255 256
2 256 257
2 257 258
2 258 259
2 259 260
2 260 261
2 261 262
2 262 263
2 263 264
2 264 265
2 265 266
2 266 267
2 267 268
2 268 269
2 269 270
2 270 271
2 271 272
2 272 273
2 273 274
2 274 275
2 275 276
2 276 277
2 277 278
2 278 279
2 279 280
2 280 281
2 281 282
2 282 283
2 283 284
2 284 285
2 285 286
2 286 287
2 287 288
2 288 289
2 289 290
2 290 291
2 291 292
2 292 293
2 293 294
2 294 295
2 295 296
2 296 297
2 297 298
2 298 299
2 299 300
2 300 301
2 301 302
2 302 303
2 303 304
2 304 305
2 305 306
2 306 307
2 307 308
2 308 309
2 309 310
2 310 311
2 311 312
2 312 313
2 313 314
2 314 315
2 315 316
2 316 317
2 317 318
2 318 319
2 319 320
2 320 321
2 321 322
2 322 323
2 323 324
2 324 325
2 325 326
2 326 327
2 327 328
2 328 329
2 329 330
2 330 331
2 331 332
2 332 333
2 333 334
2 334 335
2 335 336
2 336 337
2 337 338
2 338 339
2 339 340
2 340 341
2 341 342
2 342 343
2 343 344
2 344 345
2 345 346
2 346 347
2 347 348
2 348 349


POINT_DATA 350
SCALARS a FLOAT 1
LOOKUP_TABLE default
0.0005894628
0.0005894628
0.0005894628
0.0005894628
0.0005894628
0.0005894628
0.0005894628
0.0005894628
0.0005894628
0.0005894628
0.0005894628
0.0005894628
0.0005894628
0.0005894628
0.0005894628
0.0005894628
0.0005894628
0.0005894628
0.0005894628
0.0005894628
0.0005894628
0.0005894628
0.0005894628
0.0005894628
0.0005894628
0.0005894628
0.0005894628
0.0005894628
0.0005894628
0.0005894628
0.0005894628
0.0005894628
0.0005894628
0.0005894628
0.0005894628
0.0005894628
0.0005894628
0.0005894628
0.0005894628
0.0005894628
0.0005894628
0.0005894628
0.0005894628
0.0005894628
0.0005894628
0.0005894628
0.0005894628
0.0005894628
0.0005894628
0.0005894628
0.0005894628
0.0005894628
0.0005894628
0.0005894628
0.0005894628
0.0005894628
0.0005894628
0.0005894628
0.0005894628
0.0005894628
0.0005894628
0.0005894628
0.0005894628
0.0005894628
0.0005894628
0.0005894628
0.0005894628
0.0005894628
0.0005894628
0.0005894628
0.0005894628
0.0005894628
0.0005894628
0.0005894628
0.0005894628
0.0005894628
0.0005894628
0.0005894628
0.0005894628
0.0005894628
0.0005894628
0.0005894628
0.0005894628
0.0005894628
0.0005894628
0.0005894628
0.0005894628
0.0005894628
0.0005894628
0.0005894628
0.0005894628
0.0005894628
0.0005894628
0.0005894628
0.0005894628
0.0005894628
0.0005894628
0.0005894628
0.0005894628
0.0005894628
0.0005894628
0.0005894628
0.0005894628
0.0005894628
0.0005894628
0.0005894628
0.0005894628
0.0005894628
0.0005894628
0.0005894628
0.0005894628
0.0005894628
0.0005894628
0.0005894628
0.0005894628
0.0005894628
0.0005894628
0.0005894628
0.0005894628
0.0005894628
0.0005894628
0.0005894628
0.0005894628
0.0005894628
0.0005894628
0.0005894628
0.0005894628
0.0005894628
0.0005894628
0.0005894628
0.0005894628
0.0005894628
0.0005894628
0.0005894628
0.0005894628
0.0005894628
0.0005894628
0.0005894628
0.0005894628
0.0005894628
0.0005894628
0.0005894628
0.0005894628
0.0005894628
0.0005894628
0.0005894628
0.0005894628
0.0005894628
0.0005894628
0.0005894628
0.0005894628
0.0005894628
0.0005894628
0.0005894628
0.0005894628
0.0005894628
0.0005894628
0.0005894628
0.0005894628
0.0005894628
0.0005894628
0.0005894628
0.0005894628
0.0005894628
0.0005894628
0.0005894628
0.0005894628
0.0005894628
0.0005894628
0.0005894628
0.0005894628
0.0005894628
0.0005894628
0.0005894628
0.0005894628
0.0005894628
0.0005894628
0.0005894628
0.0005894628
0.0005894628
0.0005894628
0.0005894628
0.0005894628
0.0005894628
0.0005894628
0.0005894628
0.0005894628
0.0005894628
0.0005894628
0.0005894628
0.0005894628
0.0005894628
0.0005894628
0.0005894628
0.0005894628
0.0005894628
0.0005894628
0.0005894628
0.0005894628
0.0005894628
0.0005894628
0.0005894628
0.0005894628
0.0005894628
0.0005894628
0.0005894628
0.0005894628
0.0005894628
0.0005894628
0.0005894628
0.0005894628
0.0005894628
0.0005894628
0.0005894628
0.0005894628
0.0005894628
0.0005894628
0.0005894628
0.0005894628
0.0005894628
0.0005894628
0.0005894628
0.0005894628
0.0005894628
0.0005894628
0.0005894628
0.0005894628
0.0005894628
0.0005894628
0.0005894628
0.0005894628
0.0005894628
0.0005894628
0.0005894628
0.0005894628
0.0005894628
0.0005894628
0.0005894628
0.0005894628
0.0005894628
0.0005894628
0.0005894628
0.0005894628
0.0005894628
0.0005894628
0.0005894628
0.0005894628
0.0005894628
0.0005894628
0.0005894628
0.0005894628
0.0005894628
0.0005894628
0.0005894628
0.0005894628
0.0005894628
0.0005894628
0.0005894628
0.0005894628
0.0005894628
0.0005894628
0.0005894628
0.0005894628
0.0005894628
0.0005894628
0.0005894628
0.0005894628
0.0005894628
0.0005894628
0.0005894628
0.0005894628
0.0005894628
0.0005894628
0.0005894628
0.0005894628
0.0005894628
0.0005894628
0.0005894628
0.0005894628
0.0005894628
0.0005894628
0.0005894628
0.0005894628
0.0005894628
0.0005894628
0.0005894628
0.0005894628
0.0005894628
0.0005894628
0.0005894628
0.0005894628
0.0005894628
0.0005894628
0.0005894628
0.0005894628
0.0005894628
0.0005894628
0.0005894628
0.0005894628
0.0005894628
0.0005894628
0.0005894628
0.0005894628
0.0005894628
0.0005894628
0.0005894628
0.0005894628
0.0005894628
0.0005894628
0.0005894628
0.0005894628
0.0005894628
0.0005894628
0.0005894628
0.0005894628
0.0005894628
0.0005894628
0.0005894628
0.0005894628
0.0005894628
0.0005894628
0.0005894628
0.0005894628
0.0005894628
0.0005894628
0.0005894628
0.0005894628
0.0005894628
0.0005894628
0.0005894628
0.0005894628
0.0005894628
0.0005894628
0.0005894628
0.0005894628
0.0005894628
0.0005894628
0.0005894628
0.0005894628
0.0005894628
0.0005894628
0.0005894628
0.0005894628
0.0005894628
0.0005894628
0.0005894628
0.0005894628
0.0005894628
0.0005894628
0.0005894628


SCALARS b FLOAT 1
LOOKUP_TABLE default
0.02357851
0.02357851
0.02357851
0.02357851
0.02357851
0.02357851
0.02357851
0.02357851
0.02357851
0.02357851
0.02357851
0.02357851
0.02357851
0.02357851
0.02357851
0.02357851
0.02357851
0.02357851
0.02357851
0.02357851
0.02357851
0.02357851
0.02357851
0.02357851
0.02357851
0.02357851
0.02357851
0.02357851
0.02357851
0.02357851
0.02357851
0.02357851
0.02357851
0.02357851
0.02357851
0.02357851
0.02357851
0.02357851
0.02357851
0.02357851
0.02357851
0.02357851
0.02357851
0.02357851
0.02357851
0.02357851
0.02357851
0.02357851
0.02357851
0.02357851
0.02357851
0.02357851
0.02357851
0.02357851
0.02357851
0.02357851
0.02357851
0.02357851
0.02357851
0.02357851
0.02357851
0.02357851
0.02357851
0.02357851
0.02357851
0.02357851
0.02357851
0.02357851
0.02357851
0.02357851
0.02357851
0.02357851
0.02357851
0.02357851
0.02357851
0.02357851
0.02357851
0.02357851
0.02357851
0.02357851
0.02357851
0.02357851
0.02357851
0.02357851
0.02357851
0.02357851
0.02357851
0.02357851
0.02357851
0.02357851
0.02357851
0.02357851
0.02357851
0.02357851
0.02357851
0.02357851
0.02357851
0.02357851
0.02357851
0.02357851
0.02357851
0.02357851
0.02357851
0.02357851
0.02357851
0.02357851
0.02357851
0.02357851
0.02357851
0.02357851
0.02357851
0.02357851
0.02357851
0.02357851
0.02357851
0.02357851
0.02357851
0.02357851
0.02357851
0.02357851
0.02357851
0.02357851
0.02357851
0.02357851
0.02357851
0.02357851
0.02357851
0.02357851
0.02357851
0.02357851
0.02357851
0.02357851
0.02357851
0.02357851
0.02357851
0.02357851
0.02357851
0.02357851
0.02357851
0.02357851
0.02357851
0.02357851
0.02357851
0.02357851
0.02357851
0.02357851
0.02357851
0.02357851
0.02357851
0.02357851
0.02357851
0.02357851
0.02357851
0.02357851
0.02357851
0.02357851
0.02357851
0.02357851
0.02357851
0.02357851
0.02357851
0.02357851
0.02357851
0.02357851
0.02357851
0.02357851
0.02357851
0.02357851
0.02357851
0.02357851
0.02357851
0.02357851
0.02357851
0.02357851
0.02357851
0.02357851
0.02357851
0.02357851
0.02357851
0.02357851
0.02357851
0.02357851
0.02357851
0.02357851
0.02357851
0.02357851
0.02357851
0.02357851
0.02357851
0.02357851
0.02357851
0.02357851
0.02357851
0.02357851
0.02357851
0.02357851
0.02357851
0.02357851
0.02357851
0.02357851
0.02357851
0.02357851
0.02357851
0.02357851
0.02357851
0.02357851
0.02357851
0.02357851
0.02357851
0.02357851
0.02357851
0.02357851
0.02357851
0.02357851
0.02357851
0.02357851
0.02357851
0.02357851
0.02357851
0.02357851
0.02357851
0.02357851
0.02357851
0.02357851
0.02357851
0.02357851
0.02357851
0.02357851
0.02357851
0.02357851
0.02357851
0.02357851
0.02357851
0.02357851
0.02357851
0.02357851
0.02357851
0.02357851
0.02357851
0.02357851
0.02357851
0.02357851
0.02357851
0.02357851
0.02357851
0.02357851
0.02357851
0.02357851
0.02357851
0.02357851
0.02357851
0.02357851
0.02357851
0.02357851
0.02357851
0.02357851
0.02357851
0.02357851
0.02357851
0.02357851
0.02357851
0.02357851
0.02357851
0.02357851
0.02357851
0.02357851
0.02357851
0.02357851
0.02357851
0.02357851
0.02357851
0.02357851
0.02357851
0.02357851
0.02357851
0.02357851
0.02357851
0.02357851
0.02357851
0.02357851
0.02357851
0.02357851
0.02357851
0.02357851
0.02357851
0.02357851
0.02357851
0.02357851
0.02357851
0.02357851
0.02357851
0.02357851
0.02357851
0.02357851
0.02357851
0.02357851
0.02357851
0.02357851
0.02357851
0.02357851
0.02357851
0.02357851
0.02357851
0.02357851
0.02357851
0.02357851
0.02357851
0.02357851
0.02357851
0.02357851
0.02357851
0.02357851
0.02357851
0.02357851
0.02357851
0.02357851
0.02357851
0.02357851
0.02357851
0.02357851
0.02357851
0.02357851
0.02357851
0.02357851
0.02357851
0.02357851
0.02357851
0.02357851
0.02357851
0.02357851
0.02357851
0.02357851
0.02357851
0.02357851
0.02357851
0.02357851
0.02357851
0.02357851
0.02357851
0.02357851
0.02357851
0.02357851
0.02357851
0.02357851
0.02357851
0.02357851
0.02357851
0.02357851
0.02357851
0.02357851


VECTORS d1 FLOAT
0 0.8509945 0.5251746
-0.01008302 0.8548035 0.5188538
-0.02015815 0.858463 0.5124791
-0.03022357 0.8619732 0.5060521
-0.0402775 0.8653342 0.4995742
-0.05031818 0.8685462 0.4930472
-0.06034388 0.8716094 0.4864727
-0.07035289 0.8745241 0.4798521
-0.08034353 0.8772907 0.4731871
-0.09031413 0.8799093 0.4664793
-0.1002631 0.8823805 0.4597303
-0.1101887 0.8847046 0.4529417
-0.1200895 0.8868821 0.446115
-0.1299639 0.8889135 0.4392519
-0.1398104 0.8907992 0.4323539
-0.1496274 0.8925398 0.4254226
-0.1594136 0.8941358 0.4184596
-0.1691674 0.8955879 0.4114665
-0.1788874 0.8968967 0.4044448
-0.1885723 0.8980628 0.3973961
-0.1982207 0.8990869 0.390322
-0.2078312 0.8999698 0.3832239
-0.2174026 0.9007121 0.3761035
-0.2269336 0.9013146 0.3689623
-0.236423 0.901778 0.3618018
-0.2458695 0.9021033 0.3546236
-0.2552719 0.9022912 0.347429
-0.2646291 0.9023425 0.3402198
-0.2739399 0.9022582 0.3329972
-0.2832033 0.902039 0.3257629
-0.2924182 0.9016861 0.3185182
-0.3015835 0.9012002 0.3112647
-0.3106981 0.9005822 0.3040038
-0.3197612 0.8998333 0.2967369
-0.3287718 0.8989543 0.2894654
-0.3377288 0.8979463 0.2821909
-0.3466315 0.8968102 0.2749146
-0.3554789 0.8955471 0.2676379
-0.3642702 0.8941581 0.2603623
-0.3730045 0.8926441 0.2530891
-0.381681 0.8910063 0.2458197
-0.3902991 0.8892458 0.2385553
-0.3988578 0.8873635 0.2312974
-0.4073566 0.8853607 0.2240471
-0.4157947 0.8832384 0.2168059
-0.4241714 0.8809977 0.2095749
-0.4324861 0.8786399 0.2023556
-0.4407381 0.8761659 0.195149
-0.448927 0.8735771 0.1879565
-0.4570521 0.8708744 0.1807792
-0.4651128 0.8680592 0.1736184
-0.4731087 0.8651324 0.1664753
-0.4810392 0.8620954 0.159351
-0.4889039 0.8589493 0.1522468
-0.4967022 0.8556953 0.1451636
-0.5044339 0.8523345 0.1381028
-0.5120984 0.8488681 0.1310653
-0.5196955 0.8452974 0.1240524
-0.5272246 0.8416234 0.117065
-0.5346855 0.8378475 0.1101043
-0.5420778 0.8339708 0.1031713
-0.5494013 0.8299945 0.09626708
-0.5566556 0.8259198 0.0893926
-0.5638405 0.8217479 0.08254889
-0.5709558 0.8174799 0.07573696
-0.5780012 0.8131171 0.06895779
-0.5849764 0.8086607 0.06221232
-0.5918814 0.8041119 0.05550151
-0.5987159 0.7994718 0.0488263
-0.6054798 0.7947417 0.0421876
-0.612173 0.7899227 0.03558631
-0.6187952 0.785016 0.02902332
-0.6253465 0.7800228 0.0224995
-0.6318267 0.7749442 0.01601571
-0.6382357 0.7697815 0.009572791
-0.6445735 0.7645358 0.003171575
-0.65084 0.7592082 -0.003187125
-0.6570352 0.7538 -0.009502511
-0.6631591 0.7483123 -0.0157738
-0.6692116 0.7427461 -0.02200021
-0.6751928 0.7371028 -0.028181
-0.6811027 0.7313833 -0.03431541
-0.6869414 0.7255889 -0.04040273
-0.6927087 0.7197206 -0.04644222
-0.6984049 0.7137796 -0.0524332
-0.70403 0.707767 -0.05837497
-0.709584 0.7016839 -0.06426686
-0.7150671 0.6955314 -0.0701082
-0.7204793 0.6893106 -0.07589835
-0.7258207 0.6830225 -0.08163666
-0.7310915 0.6766683 -0.08732252
-0.7362917 0.670249 -0.09295531
-0.7414216 0.6637658 -0.09853444
-0.7464812 0.6572195 -0.1040593
-0.7514707 0.6506114 -0.1095294
-0.7563902 0.6439423 -0.114944
-0.7612399 0.6372135 -0.1203027
-0.76602 0.6304258 -0.125605
-0.7707307 0.6235803 -0.1308502
-0.7753721 0.6166781 -0.1360379
-0.7799444 0.60972 -0.1411676
-0.7844478 0.6027072 -0.1462388
-0.7888824 0.5956405 -0.1512509
-0.7932486 0.5885211 -0.1562036
-0.7975465 0.5813497 -0.1610964
-0.8017763 0.5741275 -0.1659287
-0.8059383 0.5668553 -0.1707003
-0.8100326 0.5595341 -0.1754105
-0.8140594 0.5521648 -0.1800591
-0.8180191 0.5447484 -0.1846456
-0.8219117 0.5372858 -0.1891696
-0.8257376 0.5297778 -0.1936307
-0.829497 0.5222254 -0.1980286
-0.8331901 0.5146295 -0.2023628
-0.8368171 0.506991 -0.206633
-0.8403783 0.4993108 -0.2108389
-0.843874 0.4915896 -0.21498
-0.8473042 0.4838284 -0.2190561
-0.8506694 0.4760281 -0.2230669
-0.8539697 0.4681895 -0.2270119
-0.8572053 0.4603133 -0.230891
-0.8603766 0.4524005 -0.2347037
-0.8634837 0.4444519 -0.2384498
-0.8665269 0.4364683 -0.2421291
-0.8695064 0.4284505 -0.2457412
-0.8724225 0.4203993 -0.2492858
-0.8752753 0.4123155 -0.2527627
-0.8780652 0.4041999 -0.2561717
-0.8807923 0.3960533 -0.2595124
-0.8834569 0.3878763 -0.2627847
-0.8860592 0.3796699 -0.2659883
-0.8885995 0.3714348 -0.2691229
-0.8910779 0.3631716 -0.2721884
-0.8934947 0.3548812 -0.2751846
-0.8958501 0.3465644 -0.2781112
-0.8981442 0.3382217 -0.280968
-0.9003774 0.329854 -0.2837548
-0.9025499 0.321462 -0.2864714
-0.9046617 0.3130464 -0.2891177
-0.9067132 0.3046079 -0.2916935
-0.9087046 0.2961473 -0.2941986
-0.9106359 0.2876651 -0.2966328
-0.9125075 0.2791621 -0.298996
-0.9143194 0.270639 -0.3012881
-0.916072 0.2620965 -0.3035087
-0.9177653 0.2535352 -0.305658
-0.9193995 0.2449558 -0.3077356
-0.9209748 0.2363591 -0.3097414
-0.9224914 0.2277455 -0.3116754
-0.9239494 0.2191159 -0.3135374
-0.925349 0.2104709 -0.3153273
-0.9266902 0.201811 -0.317045
-0.9279733 0.193137 -0.3186904
-0.9291985 0.1844496 -0.3202633
-0.9303657 0.1757492 -0.3217637
-0.9314752 0.1670366 -0.3231915
-0.9325271 0.1583125 -0.3245465
-0.9335214 0.1495774 -0.3258288
-0.9344583 0.1408319 -0.3270382
-0.935338 0.1320767 -0.3281747
-0.9361604 0.1233124 -0.3292382
-0.9369257 0.1145397 -0.3302286
-0.9376339 0.1057591 -0.3311459
-0.9382853 0.09697121 -0.33199
-0.9388797 0.08817671 -0.3327609
-0.9394173 0.07937618 -0.3334585
-0.9398982 0.07057023 -0.3340827
-0.9403223 0.06175947 -0.3346336
-0.9406899 0.0529445 -0.3351112
-0.9410008 0.04412592 -0.3355153
-0.9412551 0.03530434 -0.3358459
-0.9414529 0.02648035 -0.3361031
-0.9415941 0.01765457 -0.3362868
-0.9416789 0.008827585 -0.3363971
-0.9417071 -8.601453e-14 -0.3364338
-0.9416789 -0.008827585 -0.3363971
-0.9415941 -0.01765457 -0.3362868
-0.9414529 -0.02648035 -0.3361031
-0.9412551 -0.03530434 -0.3358459
-0.9410008 -0.04412592 -0.3355153
-0.9406899 -0.0529445 -0.3351112
-0.9403223 -0.06175947 -0.3346336
-0.9398982 -0.07057023 -0.3340827
-0.9394173 -0.07937618 -0.3334585
-0.9388797 -0.08817671 -0.3327609
-0.9382853 -0.09697121 -0.33199
-0.9376339 -0.1057591 -0.3311459
-0.9369257 -0.1145397 -0.3302286
-0.9361604 -0.1233124 -0.3292382
-0.935338 -0.1320767 -0.3281747
-0.9344583 -0.1408319 -0.3270382
-0.9335214 -0.1495774 -0.3258288
-0.9325271 -0.1583125 -0.3245465
-0.9314752 -0.1670366 -0.3231915
-0.9303657 -0.1757492 -0.3217637
-0.9291985 -0.1844496 -0.3202633
-0.9279733 -0.193137 -0.3186904
-0.9266902 -0.201811 -0.317045
-0.925349 -0.2104709 -0.3153273
-0.9239494 -0.2191159 -0.3135374
-0.9224914 -0.2277455 -0.3116754
-0.9209748 -0.2363591 -0.3097414
-0.9193995 -0.2449558 -0.3077356
-0.9177653 -0.2535352 -0.305658
-0.916072 -0.2620965 -0.3035087
-0.9143194 -0.270639 -0.3012881
-0.9125075 -0.2791621 -0.298996
-0.9106359 -0.2876651 -0.2966328
-0.9087046 -0.2961473 -0.2941986
-0.9067132 -0.3046079 -0.2916935
-0.9046617 -0.3130464 -0.2891177
-0.9025499 -0.321462 -0.2864714
-0.9003774 -0.329854 -0.2837548
-0.8981442 -0.3382217 -0.280968
-0.8958501 -0.3465644 -0.2781112
-0.8934947 -0.3548812 -0.2751846
-0.8910779 -0.3631716 -0.2721884
-0.8885995 -0.3714348 -0.2691229
-0.8860592 -0.3796699 -0.2659883
-0.8834569 -0.3878763 -0.2627847
-0.8807923 -0.3960533 -0.2595124
-0.8780652 -0.4041999 -0.2561717
-0.8752753 -0.4123155 -0.2527627