# vtk DataFile Version 2.0
Written badly by Kevin Korner
ASCII
DATASET POLYDATA
POINTS 350 FLOAT
0 0 0
0.00286533 0 0
0.005730485 2.004537e-05 2.436165e-05
0.008595118 6.049316e-05 7.291839e-05
0.01145887 0.0001216912 0.0001454914
0.0143214 0.0002039778 0.00024189
0.01718234 0.0003076818 0.0003619119
0.02004132 0.000433122 0.0005053434
0.022898 0.0005806072 0.0006719602
0.025752 0.000750436 0.0008615269
0.02860297 0.0009428969 0.001073798
0.03145054 0.001158268 0.001308519
0.03429434 0.001396815 0.001565424
0.03713401 0.001658796 0.001844239
0.03996919 0.001944457 0.002144681
0.04279951 0.002254032 0.002466458
0.04562462 0.002587746 0.002809271
0.04844415 0.002945811 0.003172812
0.05125774 0.00332843 0.003556766
0.05406504 0.003735794 0.00396081
0.05686568 0.004168084 0.004384616
0.05965933 0.004625469 0.004827849
0.06244563 0.005108107 0.005290166
0.06522422 0.005616147 0.005771221
0.06799477 0.006149724 0.006270661
0.07075695 0.006708966 0.006788129
0.0735104 0.007293987 0.007323263
0.0762548 0.007904893 0.007875695
0.07898981 0.008541778 0.008445056
0.08171512 0.009204726 0.009030972
0.08443041 0.009893811 0.009633064
0.08713534 0.0106091 0.01025095
0.08982963 0.01135064 0.01088425
0.09251295 0.01211848 0.01153258
0.095185 0.01291265 0.01219555
0.0978455 0.01373318 0.01287277
0.1004941 0.01458008 0.01356385
0.1031306 0.01545335 0.0142684
0.1057547 0.01635301 0.01498602
0.1083661 0.01727903 0.01571631
0.1109645 0.01823139 0.0164589
0.1135496 0.01921006 0.01721337
0.1161213 0.02021501 0.01797935
0.1186792 0.02124619 0.01875642
0.1212231 0.02230355 0.0195442
0.1237528 0.02338702 0.0203423
0.126268 0.02449654 0.02115032
0.1287685 0.02563204 0.02196788
0.131254 0.02679341 0.02279458
0.1337244 0.02798059 0.02363003
0.1361794 0.02919347 0.02447386
0.1386188 0.03043194 0.02532567
0.1410424 0.0316959 0.02618508
0.14345 0.03298523 0.02705172
0.1458415 0.03429981 0.02792521
0.1482166 0.03563951 0.02880517
0.1505751 0.03700419 0.02969123
0.1529169 0.03839373 0.03058303
0.1552418 0.03980797 0.03148019
0.1575496 0.04124676 0.03238235
0.1598402 0.04270996 0.03328915
0.1621134 0.0441974 0.03420024
0.1643691 0.04570893 0.03511526
0.1666071 0.04724436 0.03603387
0.1688273 0.04880355 0.03695571
0.1710296 0.0503863 0.03788045
0.1732137 0.05199244 0.03880774
0.1753797 0.05362179 0.03973726
0.1775273 0.05527417 0.04066866
0.1796565 0.05694937 0.04160163
0.1817671 0.05864723 0.04253583
0.183859 0.06036753 0.04347096
0.1859322 0.06211008 0.04440668
0.1879865 0.06387468 0.0453427
0.1900218 0.06566114 0.04627871
0.1920381 0.06746924 0.0472144
0.1940352 0.06929877 0.04814947
0.1960132 0.07114954 0.04908364
0.1979718 0.07302133 0.0500166
0.199911 0.07491392 0.05094807
0.2018307 0.0768271 0.05187777
0.203731 0.07876067 0.05280542
0.2056116 0.08071439 0.05373075
0.2074726 0.08268805 0.05465349
0.2093139 0.08468144 0.05557337
0.2111354 0.08669433 0.05649013
0.2129371 0.0887265 0.05740351
0.214719 0.09077772 0.05831327
0.2164809 0.09284778 0.05921914
0.2182228 0.09493645 0.06012089
0.2199448 0.09704351 0.06101828
0.2216467 0.09916872 0.06191106
0.2233286 0.1013119 0.06279901
0.2249903 0.1034727 0.06368189
0.2266319 0.1056511 0.06455949
0.2282533 0.1078467 0.06543157
0.2298545 0.1100593 0.06629793
0.2314354 0.1122887 0.06715835
0.2329962 0.1145347 0.06801261
0.2345366 0.116797 0.06886053
0.2360568 0.1190755 0.06970188
0.2375566 0.1213698 0.07053648
0.2390362 0.1236798 0.07136413
0.2404953 0.1260053 0.07218464
0.2419342 0.1283459 0.07299781
0.2433526 0.1307015 0.07380348
0.2447507 0.1330719 0.07460145
0.2461284 0.1354568 0.07539156
0.2474857 0.1378561 0.07617362
0.2488226 0.1402693 0.07694747
0.2501391 0.1426965 0.07771294
0.2514352 0.1451372 0.07846987
0.2527108 0.1475914 0.0792181
0.2539661 0.1500588 0.07995747
0.2552009 0.1525391 0.08068782
0.2564154 0.1550321 0.08140902
0.2576094 0.1575376 0.08212091
0.2587829 0.1600554 0.08282334
0.2599361 0.1625853 0.08351618
0.2610689 0.165127 0.08419929
0.2621812 0.1676804 0.08487254
0.2632732 0.1702451 0.08553578
0.2643447 0.172821 0.0861889
0.2653959 0.1754079 0.08683177
0.2664266 0.1780055 0.08746426
0.267437 0.1806136 0.08808626
0.268427 0.1832321 0.08869764
0.2693966 0.1858606 0.0892983
0.2703458 0.188499 0.08988811
0.2712747 0.1911471 0.09046698
0.2721833 0.1938046 0.09103479
0.2730715 0.1964713 0.09159145
0.2739393 0.199147 0.09213684
0.2747869 0.2018315 0.09267088
0.2756141 0.2045246 0.09319346
0.276421 0.2072261 0.0937045
0.2772075 0.2099357 0.09420389
0.2779738 0.2126532 0.09469156
0.2787199 0.2153785 0.09516742
0.2794456 0.2181113 0.09563139
0.280151 0.2208514 0.09608337
0.2808362 0.2235986 0.09652331
0.2815012 0.2263527 0.09695111
0.2821458 0.2291134 0.09736671
0.2827703 0.2318806 0.09777003
0.2833745 0.2346541 0.09816101
0.2839585 0.2374336 0.09853958
0.2845223 0.240219 0.09890568
0.2850659 0.24301 0.09925924
0.2855892 0.2458064 0.09960021
0.2860924 0.248608 0.09992852
0.2865754 0.2514147 0.1002441
0.2870382 0.2542261 0.100547
0.2874809 0.2570422 0.100837
0.2879033 0.2598626 0.1011142
0.2883057 0.2626872 0.1013785
0.2886878 0.2655158 0.1016298
0.2890498 0.2683481 0.1018682
0.2893917 0.2711841 0.1020935
0.2897134 0.2740234 0.1023057
0.290015 0.2768658 0.1025049
0.2902965 0.2797112 0.1026909
0.2905578 0.2825593 0.1028638
0.2907991 0.28541 0.1030234
0.2910202 0.2882631 0.1031699
0.2912212 0.2911182 0.1033031
0.2914021 0.2939753 0.1034231
0.2915629 0.2968341 0.1035297
0.2917035 0.2996945 0.1036231
0.2918241 0.3025562 0.1037032
0.2919246 0.305419 0.1037699
0.292005 0.3082827 0.1038233
0.2920653 0.3111471 0.1038634
0.2921055 0.314012 0.1038901
0.2921256 0.3168772 0.1039035
0.2921256 0.3197426 0.1039035
0.2921055 0.3226078 0.1038901
0.2920653 0.3254727 0.1038634
0.292005 0.3283371 0.1038233
0.2919246 0.3312008 0.1037699
0.2918241 0.3340636 0.1037032
0.2917035 0.3369253 0.1036231
0.2915629 0.3397856 0.1035297
0.2914021 0.3426445 0.1034231
0.2912212 0.3455016 0.1033031
0.2910202 0.3483567 0.1031699
0.2907991 0.3512097 0.1030234
0.2905578 0.3540604 0.1028638
0.2902965 0.3569086 0.1026909
0.290015 0.359754 0.1025049
0.2897134 0.3625964 0.1023057
0.2893917 0.3654357 0.1020935
0.2890498 0.3682716 0.1018682
0.2886878 0.371104 0.1016298
0.2883057 0.3739326 0.1013785
0.2879033 0.3767572 0.1011142
0.2874809 0.3795776 0.100837
0.2870382 0.3823936 0.100547
0.2865754 0.3852051 0.1002441
0.2860924 0.3880117 0.09992852
0.2855892 0.3908134 0.09960021
0.2850659 0.3936098 0.09925924
0.2845223 0.3964008 0.09890568
0.2839585 0.3991861 0.09853958
0.2833745 0.4019656 0.09816101
0.2827703 0.4047391 0.09777003
0.2821458 0.4075063 0.09736671
0.2815012 0.4102671 0.09695111
0.2808362 0.4130212 0.09652331
0.280151 0.4157684 0.09608337
0.2794456 0.4185085 0.09563139
0.2787199 0.4212413 0.09516742
0.2779738 0.4239666 0.09469156
0.2772075 0.4266841 0.09420389
0.276421 0.4293937 0.0937045
0.2756141 0.4320952 0.09319346
0.2747869 0.4347883 0.09267088
0.2739393 0.4374728 0.09213684
0.2730715 0.4401485 0.09159145
0.2721833 0.4428152 0.09103479
0.2712747 0.4454727 0.09046698
0.2703458 0.4481208 0.08988811
0.2693966 0.4507592 0.0892983
0.268427 0.4533877 0.08869764
0.267437 0.4560061 0.08808626
0.2664266 0.4586143 0.08746426
0.2653959 0.4612119 0.08683177
0.2643447 0.4637988 0.0861889
0.2632732 0.4663747 0.08553578
0.2621812 0.4689394 0.08487254
0.2610689 0.4714927 0.08419929
0.2599361 0.4740345 0.08351618
0.2587829 0.4765643 0.08282334
0.2576094 0.4790822 0.08212091
0.2564154 0.4815877 0.08140902
0.2552009 0.4840807 0.08068782
0.2539661 0.486561 0.07995747
0.2527108 0.4890284 0.0792181
0.2514352 0.4914825 0.07846987
0.2501391 0.4939233 0.07771294
0.2488226 0.4963504 0.07694747
0.2474857 0.4987637 0.07617362
0.2461284 0.5011629 0.07539156
0.2447507 0.5035478 0.07460145
0.2433526 0.5059182 0.07380348
0.2419342 0.5082739 0.07299781
0.2404953 0.5106145 0.07218464
0.2390362 0.5129399 0.07136413
0.2375566 0.51525 0.07053648
0.2360568 0.5175443 0.06970188
0.2345366 0.5198227 0.06886053
0.2329962 0.5220851 0.06801261
0.2314354 0.5243311 0.06715835
0.2298545 0.5265605 0.06629793
0.2282533 0.5287731 0.06543157
0.2266319 0.5309687 0.06455949
0.2249903 0.533147 0.06368189
0.2233286 0.5353079 0.06279901
0.2216467 0.537451 0.06191106
0.2199448 0.5395763 0.06101828
0.2182228 0.5416833 0.06012089
0.2164809 0.543772 0.05921914
0.214719 0.545842 0.05831327
0.2129371 0.5478933 0.05740351
0.2111354 0.5499254 0.05649013
0.2093139 0.5519383 0.05557337
0.2074726 0.5539317 0.05465349
0.2056116 0.5559054 0.05373075
0.203731 0.5578591 0.05280542
0.2018307 0.5597927 0.05187777
0.199911 0.5617059 0.05094807
0.1979718 0.5635984 0.0500166
0.1960132 0.5654702 0.04908364
0.1940352 0.567321 0.04814947
0.1920381 0.5691505 0.0472144
0.1900218 0.5709586 0.04627871
0.1879865 0.5727451 0.0453427
0.1859322 0.5745097 0.04440668
0.183859 0.5762522 0.04347096
0.1817671 0.5779725 0.04253583
0.1796565 0.5796704 0.04160163
0.1775273 0.5813456 0.04066866
0.1753797 0.582998 0.03973726
0.1732137 0.5846273 0.03880774
0.1710296 0.5862335 0.03788045
0.1688273 0.5878162 0.03695571
0.1666071 0.5893754 0.03603387
0.1643691 0.5909108 0.03511526
0.1621134 0.5924224 0.03420024
0.1598402 0.5939098 0.03328915
0.1575496 0.595373 0.03238235
0.1552418 0.5968118 0.03148019
0.1529169 0.598226 0.03058303
0.1505751 0.5996156 0.02969123
0.1482166 0.6009803 0.02880517
0.1458415 0.60232 0.02792521
0.14345 0.6036345 0.02705172
0.1410424 0.6049239 0.02618508
0.1386188 0.6061878 0.02532567
0.1361794 0.6074263 0.02447386
0.1337244 0.6086392 0.02363003
0.131254 0.6098264 0.02279458
0.1287685 0.6109877 0.02196788
0.126268 0.6121232 0.02115032
0.1237528 0.6132327 0.0203423
0.1212231 0.6143162 0.0195442
0.1186792 0.6153736 0.01875642
0.1161213 0.6164048 0.01797935
0.1135496 0.6174097 0.01721337
0.1109645 0.6183884 0.0164589
0.1083661 0.6193407 0.01571631
0.1057547 0.6202668 0.01498602
0.1031306 0.6211664 0.0142684
0.1004941 0.6220397 0.01356385
0.0978455 0.6228866 0.01287277
0.095185 0.6237071 0.01219555
0.09251295 0.6245013 0.01153258
0.08982963 0.6252691 0.01088425
0.08713534 0.6260107 0.01025095
0.08443041 0.626726 0.009633064
0.08171512 0.627415 0.009030972
0.07898981 0.628078 0.008445056
0.0762548 0.6287149 0.007875695
0.0735104 0.6293258 0.007323263
0.07075695 0.6299108 0.006788129
0.06799477 0.63047 0.006270661
0.06522422 0.6310036 0.005771221
0.06244563 0.6315117 0.005290166
0.05965933 0.6319943 0.004827849
0.05686568 0.6324517 0.004384616
0.05406504 0.632884 0.00396081
0.05125774 0.6332913 0.003556766
0.04844415 0.633674 0.003172812
0.04562462 0.634032 0.002809271
0.04279951 0.6343657 0.002466458
0.03996919 0.6346753 0.002144681
0.03713401 0.634961 0.001844239
0.03429434 0.635223 0.001565424
0.03145054 0.6354615 0.001308519
0.02860297 0.6356769 0.001073798
0.025752 0.6358693 0.0008615269
0.022898 0.6360392 0.0006719602
0.02004132 0.6361867 0.0005053434
0.01718234 0.6363121 0.0003619119
0.0143214 0.6364158 0.00024189
0.01145887 0.6364981 0.0001454914
0.008595118 0.6365593 7.291839e-05
0.005730485 0.6365997 2.436165e-05
0.00286533 0.6366198 0
0 0.6366198 0

LINES 349 1047
2 0 1
2 1 2
2 2 3
2 3 4
2 4 5
2 5 6
2 6 7
2 7 8
2 8 9
2 9 10
2 10 11
2 11 12
2 12 13
2 13 14
2 14 15
2 15 16
2 16 17
2 17 18
2 18 19
2 19 20
2 20 21
2 21 22
2 22 23
2 23 24
2 24 25
2 25 26
2 26 27
2 27 28
2 28 29
2 29 30
2 30 31
2 31 32
2 32 33
2 33 34
2 34 35
2 35 36
2 36 37
2 37 38
2 38 39
2 39 40
2 40 41
2 41 42
2 42 43
2 43 44
2 44 45
2 45 46
2 46 47
2 47 48
2 48 49
2 49 50
2 50 51
2 51 52
2 52 53
2 53 54
2 54 55
2 55 56
2 56 57
2 57 58
2 58 59
2 59 60
2 60 61
2 61 62
2 62 63
2 63 64
2 64 65
2 65 66
2 66 67
2 67 68
2 68 69
2 69 70
2 70 71
2 71 72
2 72 73
2 73 74
2 74 75
2 75 76
2 76 77
2 77 78
2 78 79
2 79 80
2 80 81
2 81 82
2 82 83
2 83 84
2 84 85
2 85 86
2 86 87
2 87 88
2 88 89
2 89 90
2 90 91
2 91 92
2 92 93
2 93 94
2 94 95
2 95 96
2 96 97
2 97 98
2 98 99
2 99 100
2 100 101
2 101 102
2 102 103
2 103 104
2 104 105
2 105 106
2 106 107
2 107 108
2 108 109
2 109 110
2 110 111
2 111 112
2 112 113
2 113 114
2 114 115
2 115 116
2 116 117
2 117 118
2 118 119
2 119 120
2 120 121
2 121 122
2 122 123
2 123 124
2 124 125
2 125 126
2 126 127
2 127 128
2 128 129
2 129 130
2 130 131
2 131 132
2 132 133
2 133 134
2 134 135
2 135 136
2 136 137
2 137 138
2 138 139
2 139 140
2 140 141
2 141 142
2 142 143
2 143 144
2 144 145
2 145 146
2 146 147
2 147 148
2 148 149
2 149 150
2 150 151
2 151 152
2 152 153
2 153 154
2 154 155
2 155 156
2 156 157
2 157 158
2 158 159
2 159 160
2 160 161
2 161 162
2 162 163
2 163 164
2 164 165
2 165 166
2 166 167
2 167 168
2 168 169
2 169 170
2 170 171
2 171 172
2 172 173
2 173 174
2 174 175
2 175 176
2 176 177
2 177 178
2 178 179
2 179 180
2 180 181
2 181 182
2 182 183
2 183 184
2 184 185
2 185 186
2 186 187
2 187 188
2 188 189
2 189 190
2 190 191
2 191 192
2 192 193
2 193 194
2 194 195
2 195 196
2 196 197
2 197 198
2 198 199
2 199 200
2 200 201
2 201 202
2 202 203
2 203 204
2 204 205
2 205 206
2 206 207
2 207 208
2 208 209
2 209 210
2 210 211
2 211 212
2 212 213
2 213 214
2 214 215
2 215 216
2 216 217
2 217 218
2 218 219
2 219 220
2 220 221
2 221 222
2 222 223
2 223 224
2 224 225
2 225 226
2 226 227
2 227 228
2 228 229
2 229 230
2 230 231
2 231 232
2 232 233
2 233 234
2 234 235
2 235 236
2 236 237
2 237 238
2 238 239
2 239 240
2 240 241
2 241 242
2 242 243
2 243 244
2 244 245
2 245 246
2 246 247
2 247 248
2 248 249
2 249 250
2 250 251
2 251 252
2 252 253
2 253 254
2 254 255
2 255 256
2 256 257
2 257 258
2 258 259
2 259 260
2 260 261
2 261 262
2 262 263
2 263 264
2 264 265
2 265 266
2 266 267
2 267 268
2 268 269
2 269 270
2 270 271
2 271 272
2 272 273
2 273 274
2 274 275
2 275 276
2 276 277
2 277 278
2 278 279
2 279 280
2 280 281
2 281 282
2 282 283
2 283 284
2 284 285
2 285 286
2 286 287
2 287 288
2 288 289
2 289 290
2 290 291
2 291 292
2 292 293
2 293 294
2 294 295
2 295 296
2 296 297
2 297 298
2 298 299
2 299 300
2 300 301
2 301 302
2 302 303
2 303 304
2 304 305
2 305 306
2 306 307
2 307 308
2 308 309
2 309 310
2 310 311
2 311 312
2 312 313
2 313 314
2 314 315
2 315 316
2 316 317
2 317 318
2 318 319
2 319 320
2 320 321
2 321 322
2 322 323
2 323 324
2 324 325
2 325 326
2 326 327
2 327 328
2 328 329
2 329 330
2 330 331
2 331 332
2 332 333
2 333 334
2 334 335
2 335 336
2 336 337
2 337 338
2 338 339
2 339 340
2 340 341
2 341 342
2 342 343
2 343 344
2 344 345
2 345 346
2 346 347
2 347 348
2 348 349


POINT_DATA 350
SCALARS a FLOAT 1
LOOKUP_TABLE default
0.0005894628
0.0005894628
0.0005894628
0.0005894628
0.0005894628
0.0005894628
0.0005894628
0.0005894628
0.0005894628
0.0005894628
0.0005894628
0.0005894628
0.0005894628
0.0005894628
0.0005894628
0.0005894628
0.0005894628
0.0005894628
0.0005894628
0.0005894628
0.0005894628
0.0005894628
0.0005894628
0.0005894628
0.0005894628
0.0005894628
0.0005894628
0.0005894628
0.0005894628
0.0005894628
0.0005894628
0.0005894628
0.0005894628
0.0005894628
0.0005894628
0.0005894628
0.0005894628
0.0005894628
0.0005894628
0.0005894628
0.0005894628
0.0005894628
0.0005894628
0.0005894628
0.0005894628
0.0005894628
0.0005894628
0.0005894628
0.0005894628
0.0005894628
0.0005894628
0.0005894628
0.0005894628
0.0005894628
0.0005894628
0.0005894628
0.0005894628
0.0005894628
0.0005894628
0.0005894628
0.0005894628
0.0005894628
0.0005894628
0.0005894628
0.0005894628
0.0005894628
0.0005894628
0.0005894628
0.0005894628
0.0005894628
0.0005894628
0.0005894628
0.0005894628
0.0005894628
0.0005894628
0.0005894628
0.0005894628
0.0005894628
0.0005894628
0.0005894628
0.0005894628
0.0005894628
0.0005894628
0.0005894628
0.0005894628
0.0005894628
0.0005894628
0.0005894628
0.0005894628
0.0005894628
0.0005894628
0.0005894628
0.0005894628
0.0005894628
0.0005894628
0.0005894628
0.0005894628
0.0005894628
0.0005894628
0.0005894628
0.0005894628
0.0005894628
0.0005894628
0.0005894628
0.0005894628
0.0005894628
0.0005894628
0.0005894628
0.0005894628
0.0005894628
0.0005894628
0.0005894628
0.0005894628
0.0005894628
0.0005894628
0.0005894628
0.0005894628
0.0005894628
0.0005894628
0.0005894628
0.0005894628
0.0005894628
0.0005894628
0.0005894628
0.0005894628
0.0005894628
0.0005894628
0.0005894628
0.0005894628
0.0005894628
0.0005894628
0.0005894628
0.0005894628
0.0005894628
0.0005894628
0.0005894628
0.0005894628
0.0005894628
0.0005894628
0.0005894628
0.0005894628
0.0005894628
0.0005894628
0.0005894628
0.0005894628
0.0005894628
0.0005894628
0.0005894628
0.0005894628
0.0005894628
0.0005894628
0.0005894628
0.0005894628
0.0005894628
0.0005894628
0.0005894628
0.0005894628
0.0005894628
0.0005894628
0.0005894628
0.0005894628
0.0005894628
0.0005894628
0.0005894628
0.0005894628
0.0005894628
0.0005894628
0.0005894628
0.0005894628
0.0005894628
0.0005894628
0.0005894628
0.0005894628
0.0005894628
0.0005894628
0.0005894628
0.0005894628
0.0005894628
0.0005894628
0.0005894628
0.0005894628
0.0005894628
0.0005894628
0.0005894628
0.0005894628
0.0005894628
0.0005894628
0.0005894628
0.0005894628
0.0005894628
0.0005894628
0.0005894628
0.0005894628
0.0005894628
0.0005894628
0.0005894628
0.0005894628
0.0005894628
0.0005894628
0.0005894628
0.0005894628
0.0005894628
0.0005894628
0.0005894628
0.0005894628
0.0005894628
0.0005894628
0.0005894628
0.0005894628
0.0005894628
0.0005894628
0.0005894628
0.0005894628
0.0005894628
0.0005894628
0.0005894628
0.0005894628
0.0005894628
0.0005894628
0.0005894628
0.0005894628
0.0005894628
0.0005894628
0.0005894628
0.0005894628
0.0005894628
0.0005894628
0.0005894628
0.0005894628
0.0005894628
0.0005894628
0.0005894628
0.0005894628
0.0005894628
0.0005894628
0.0005894628
0.0005894628
0.0005894628
0.0005894628
0.0005894628
0.0005894628
0.0005894628
0.0005894628
0.0005894628
0.0005894628
0.0005894628
0.0005894628
0.0005894628
0.0005894628
0.0005894628
0.0005894628
0.0005894628
0.0005894628
0.0005894628
0.0005894628
0.0005894628
0.0005894628
0.0005894628
0.0005894628
0.0005894628
0.0005894628
0.0005894628
0.0005894628
0.0005894628
0.0005894628
0.0005894628
0.0005894628
0.0005894628
0.0005894628
0.0005894628
0.0005894628
0.0005894628
0.0005894628
0.0005894628
0.0005894628
0.0005894628
0.0005894628
0.0005894628
0.0005894628
0.0005894628
0.0005894628
0.0005894628
0.0005894628
0.0005894628
0.0005894628
0.0005894628
0.0005894628
0.0005894628
0.0005894628
0.0005894628
0.0005894628
0.0005894628
0.0005894628
0.0005894628
0.0005894628
0.0005894628
0.0005894628
0.0005894628
0.0005894628
0.0005894628
0.0005894628
0.0005894628
0.0005894628
0.0005894628
0.0005894628
0.0005894628
0.0005894628
0.0005894628
0.0005894628
0.0005894628
0.0005894628
0.0005894628
0.0005894628
0.0005894628
0.0005894628
0.0005894628
0.0005894628
0.0005894628
0.0005894628
0.0005894628
0.0005894628
0.0005894628
0.0005894628
0.0005894628
0.0005894628
0.0005894628
0.0005894628
0.0005894628
0.0005894628
0.0005894628
0.0005894628
0.0005894628
0.0005894628
0.0005894628
0.0005894628
0.0005894628
0.0005894628
0.0005894628
0.0005894628
0.0005894628
0.0005894628
0.0005894628
0.0005894628
0.0005894628
0.0005894628
0.0005894628
0.0005894628
0.0005894628
0.0005894628
0.0005894628


SCALARS b FLOAT 1
LOOKUP_TABLE default
0.02357851
0.02357851
0.02357851
0.02357851
0.02357851
0.02357851
0.02357851
0.02357851
0.02357851
0.02357851
0.02357851
0.02357851
0.02357851
0.02357851
0.02357851
0.02357851
0.02357851
0.02357851
0.02357851
0.02357851
0.02357851
0.02357851
0.02357851
0.02357851
0.02357851
0.02357851
0.02357851
0.02357851
0.02357851
0.02357851
0.02357851
0.02357851
0.02357851
0.02357851
0.02357851
0.02357851
0.02357851
0.02357851
0.02357851
0.02357851
0.02357851
0.02357851
0.02357851
0.02357851
0.02357851
0.02357851
0.02357851
0.02357851
0.02357851
0.02357851
0.02357851
0.02357851
0.02357851
0.02357851
0.02357851
0.02357851
0.02357851
0.02357851
0.02357851
0.02357851
0.02357851
0.02357851
0.02357851
0.02357851
0.02357851
0.02357851
0.02357851
0.02357851
0.02357851
0.02357851
0.02357851
0.02357851
0.02357851
0.02357851
0.02357851
0.02357851
0.02357851
0.02357851
0.02357851
0.02357851
0.02357851
0.02357851
0.02357851
0.02357851
0.02357851
0.02357851
0.02357851
0.02357851
0.02357851
0.02357851
0.02357851
0.02357851
0.02357851
0.02357851
0.02357851
0.02357851
0.02357851
0.02357851
0.02357851
0.02357851
0.02357851
0.02357851
0.02357851
0.02357851
0.02357851
0.02357851
0.02357851
0.02357851
0.02357851
0.02357851
0.02357851
0.02357851
0.02357851
0.02357851
0.02357851
0.02357851
0.02357851
0.02357851
0.02357851
0.02357851
0.02357851
0.02357851
0.02357851
0.02357851
0.02357851
0.02357851
0.02357851
0.02357851
0.02357851
0.02357851
0.02357851
0.02357851
0.02357851
0.02357851
0.02357851
0.02357851
0.02357851
0.02357851
0.02357851
0.02357851
0.02357851
0.02357851
0.02357851
0.02357851
0.02357851
0.02357851
0.02357851
0.02357851
0.02357851
0.02357851
0.02357851
0.02357851
0.02357851
0.02357851
0.02357851
0.02357851
0.02357851
0.02357851
0.02357851
0.02357851
0.02357851
0.02357851
0.02357851
0.02357851
0.02357851
0.02357851
0.02357851
0.02357851
0.02357851
0.02357851
0.02357851
0.02357851
0.02357851
0.02357851
0.02357851
0.02357851
0.02357851
0.02357851
0.02357851
0.02357851
0.02357851
0.02357851
0.02357851
0.02357851
0.02357851
0.02357851
0.02357851
0.02357851
0.02357851
0.02357851
0.02357851
0.02357851
0.02357851
0.02357851
0.02357851
0.02357851
0.02357851
0.02357851
0.02357851
0.02357851
0.02357851
0.02357851
0.02357851
0.02357851
0.02357851
0.02357851
0.02357851
0.02357851
0.02357851
0.02357851
0.02357851
0.02357851
0.02357851
0.02357851
0.02357851
0.02357851
0.02357851
0.02357851
0.02357851
0.02357851
0.02357851
0.02357851
0.02357851
0.02357851
0.02357851
0.02357851
0.02357851
0.02357851
0.02357851
0.02357851
0.02357851
0.02357851
0.02357851
0.02357851
0.02357851
0.02357851
0.02357851
0.02357851
0.02357851
0.02357851
0.02357851
0.02357851
0.02357851
0.02357851
0.02357851
0.02357851
0.02357851
0.02357851
0.02357851
0.02357851
0.02357851
0.02357851
0.02357851
0.02357851
0.02357851
0.02357851
0.02357851
0.02357851
0.02357851
0.02357851
0.02357851
0.02357851
0.02357851
0.02357851
0.02357851
0.02357851
0.02357851
0.02357851
0.02357851
0.02357851
0.02357851
0.02357851
0.02357851
0.02357851
0.02357851
0.02357851
0.02357851
0.02357851
0.02357851
0.02357851
0.02357851
0.02357851
0.02357851
0.02357851
0.02357851
0.02357851
0.02357851
0.02357851
0.02357851
0.02357851
0.02357851
0.02357851
0.02357851
0.02357851
0.02357851
0.02357851
0.02357851
0.02357851
0.02357851
0.02357851
0.02357851
0.02357851
0.02357851
0.02357851
0.02357851
0.02357851
0.02357851
0.02357851
0.02357851
0.02357851
0.02357851
0.02357851
0.02357851
0.02357851
0.02357851
0.02357851
0.02357851
0.02357851
0.02357851
0.02357851
0.02357851
0.02357851
0.02357851
0.02357851
0.02357851
0.02357851
0.02357851
0.02357851
0.02357851
0.02357851
0.02357851
0.02357851
0.02357851
0.02357851
0.02357851
0.02357851
0.02357851
0.02357851
0.02357851
0.02357851
0.02357851
0.02357851
0.02357851
0.02357851
0.02357851
0.02357851
0.02357851
0.02357851
0.02357851
0.02357851


VECTORS d1 FLOAT
0 0.6301339 0.7764865
-0.01101027 0.6394309 0.7687697
-0.02205412 0.6485181 0.7608797
-0.03312626 0.6573931 0.7528193
-0.04422142 0.6660537 0.7445918
-0.05533442 0.6744978 0.7362003
-0.06646014 0.6827236 0.727648
-0.07759349 0.6907292 0.7189384
-0.0887295 0.6985131 0.710075
-0.09986324 0.7060738 0.7010614
-0.1109899 0.7134101 0.6919012
-0.1221046 0.7205207 0.6825982
-0.1332028 0.7274048 0.6731562
-0.1442799 0.7340613 0.6635792
-0.1553313 0.7404897 0.653871
-0.1663527 0.7466893 0.6440356
-0.1773397 0.7526597 0.6340773
-0.1882881 0.7584007 0.6239999
-0.1991938 0.7639121 0.6138078
-0.2100528 0.769194 0.6035051
-0.2208612 0.7742463 0.5930961
-0.2316151 0.7790695 0.5825849
-0.2423109 0.7836639 0.5719759
-0.2529449 0.7880299 0.5612733
-0.2635137 0.7921683 0.5504815
-0.274014 0.7960798 0.5396047
-0.2844424 0.7997653 0.5286473
-0.2947958 0.8032258 0.5176136
-0.3050711 0.8064623 0.5065078
-0.3152655 0.8094761 0.4953344
-0.3253761 0.8122684 0.4840975
-0.3354003 0.8148408 0.4728014
-0.3453354 0.8171946 0.4614504
-0.355179 0.8193315 0.4500487
-0.3649287 0.8212531 0.4386004
-0.3745823 0.8229613 0.4271098
-0.3841376 0.8244579 0.415581
-0.3935926 0.8257447 0.404018
-0.4029455 0.8268239 0.3924248
-0.4121943 0.8276974 0.3808056
-0.4213375 0.8283674 0.3691642
-0.4303733 0.8288361 0.3575046
-0.4393005 0.8291058 0.3458305
-0.4481174 0.8291787 0.3341459
-0.456823 0.8290572 0.3224545
-0.4654159 0.8287438 0.3107599
-0.4738952 0.8282409 0.2990658
-0.4822599 0.827551 0.2873757
-0.490509 0.8266766 0.2756933
-0.4986418 0.8256202 0.2640219
-0.5066576 0.8243846 0.2523649
-0.5145559 0.8229723 0.2407256
-0.522336 0.821386 0.2291074
-0.5299976 0.8196283 0.2175133
-0.5375403 0.8177019 0.2059466
-0.5449638 0.8156096 0.1944102
-0.5522681 0.8133541 0.1829073
-0.5594529 0.8109381 0.1714406
-0.5665183 0.8083643 0.160013
-0.5734643 0.8056355 0.1486274
-0.5802911 0.8027544 0.1372864
-0.5869988 0.7997239 0.1259928
-0.5935877 0.7965465 0.1147489
-0.6000581 0.7932252 0.1035575
-0.6064104 0.7897625 0.09242085
-0.6126451 0.7861613 0.0813414
-0.6187627 0.7824242 0.07032145
-0.6247637 0.778554 0.05936323
-0.6306488 0.7745533 0.04846891
-0.6364187 0.7704249 0.0376406
-0.642074 0.7661713 0.02688035
-0.6476156 0.7617952 0.01619012
-0.6530442 0.7572993 0.005571825
-0.6583608 0.7526861 -0.004972677
-0.6635662 0.7479582 -0.0154416
-0.6686613 0.7431182 -0.02583322
-0.6736473 0.7381685 -0.03614587
-0.6785251 0.7331117 -0.04637795
-0.6832957 0.7279503 -0.05652789
-0.6879603 0.7226866 -0.06659422
-0.6925199 0.7173231 -0.0765755
-0.6969757 0.7118621 -0.08647034
-0.701329 0.7063061 -0.09627742
-0.7055808 0.7006573 -0.1059955
-0.7097325 0.694918 -0.1156233
-0.7137852 0.6890905 -0.1251596
-0.7177403 0.683177 -0.1346034
-0.721599 0.6771796 -0.1439536
-0.7253626 0.6711006 -0.1532092
-0.7290326 0.664942 -0.1623691
-0.7326101 0.6587058 -0.1714325
-0.7360965 0.6523943 -0.1803984
-0.7394933 0.6460093 -0.189266
-0.7428018 0.6395529 -0.1980345
-0.7460233 0.6330269 -0.2067031
-0.7491592 0.6264334 -0.2152711
-0.7522111 0.619774 -0.2237379
-0.7551801 0.6130508 -0.2321027
-0.7580679 0.6062655 -0.2403649
-0.7608757 0.5994197 -0.248524
-0.763605 0.5925154 -0.2565794
-0.7662571 0.5855541 -0.2645306
-0.7688336 0.5785375 -0.272377
-0.7713357 0.5714673 -0.2801184
-0.773765 0.564345 -0.2877541
-0.7761228 0.5571722 -0.2952839
-0.7784105 0.5499503 -0.3027074
-0.7806295 0.5426809 -0.3100241
-0.7827813 0.5353655 -0.3172339
-0.7848671 0.5280053 -0.3243363
-0.7868883 0.520602 -0.3313312
-0.7888464 0.5131567 -0.3382182
-0.7907427 0.5056707 -0.3449972
-0.7925785 0.4981455 -0.3516679
-0.7943552 0.4905822 -0.3582302
-0.7960741 0.4829821 -0.3646838
-0.7977365 0.4753464 -0.3710287
-0.7993437 0.4676762 -0.3772646
-0.800897 0.4599727 -0.3833915
-0.8023977 0.4522369 -0.3894093
-0.8038471 0.4444701 -0.3953179
-0.8052463 0.4366731 -0.4011171
-0.8065967 0.4288471 -0.406807
-0.8078994 0.420993 -0.4123875
-0.8091557 0.4131119 -0.4178585
-0.8103666 0.4052046 -0.42322
-0.8115335 0.3972721 -0.428472
-0.8126574 0.3893152 -0.4336146
-0.8137395 0.381335 -0.4386476
-0.8147809 0.3733321 -0.4435711
-0.8157826 0.3653075 -0.4483851
-0.8167458 0.3572618 -0.4530897
-0.8176715 0.349196 -0.4576848
-0.8185608 0.3411108 -0.4621705
-0.8194146 0.3330069 -0.4665469
-0.820234 0.324885 -0.470814
-0.82102 0.3167459 -0.4749719
-0.8217734 0.3085902 -0.4790205
-0.8224952 0.3004185 -0.48296
-0.8231864 0.2922316 -0.4867904
-0.8238477 0.28403 -0.4905119
-0.8244802 0.2758143 -0.4941244
-0.8250846 0.2675852 -0.497628
-0.8256617 0.2593431 -0.5010228
-0.8262124 0.2510888 -0.5043089
-0.8267374 0.2428227 -0.5074864
-0.8272375 0.2345453 -0.5105552
-0.8277134 0.2262571 -0.5135156
-0.8281657 0.2179588 -0.5163676
-0.8285953 0.2096506 -0.5191112
-0.8290027 0.2013332 -0.5217465
-0.8293886 0.193007 -0.5242737
-0.8297535 0.1846725 -0.5266926
-0.8300982 0.17633 -0.5290036
-0.830423 0.16798 -0.5312065
-0.8307286 0.159623 -0.5333016
-0.8310154 0.1512593 -0.5352887
-0.831284 0.1428893 -0.5371681
-0.8315348 0.1345135 -0.5389397
-0.8317682 0.1261322 -0.5406037
-0.8319846 0.1177459 -0.54216
-0.8321845 0.1093548 -0.5436088
-0.8323681 0.1009594 -0.54495
-0.8325359 0.09255991 -0.5461838
-0.832688 0.08415682 -0.5473101
-0.8328248 0.07575043 -0.548329
-0.8329465 0.06734109 -0.5492406
-0.8330534 0.05892914 -0.5500449
-0.8331456 0.0505149 -0.5507419
-0.8332234 0.04209871 -0.5513316
-0.8332868 0.03368091 -0.551814
-0.833336 0.02526181 -0.5521892
-0.8333711 0.01684174 -0.5524572
-0.8333921 0.008421033 -0.552618
-0.8333991 1.555978e-13 -0.5526716
-0.8333921 -0.008421033 -0.552618
-0.8333711 -0.01684174 -0.5524572
-0.833336 -0.02526181 -0.5521892
-0.8332868 -0.03368091 -0.551814
-0.8332234 -0.04209871 -0.5513316
-0.8331456 -0.0505149 -0.5507419
-0.8330534 -0.05892914 -0.5500449
-0.8329465 -0.06734109 -0.5492406
-0.8328248 -0.07575043 -0.548329
-0.832688 -0.08415682 -0.5473101
-0.8325359 -0.09255991 -0.5461838
-0.8323681 -0.1009594 -0.54495
-0.8321845 -0.1093548 -0.5436088
-0.8319846 -0.1177459 -0.54216
-0.8317682 -0.1261322 -0.5406037
-0.8315348 -0.1345135 -0.5389397
-0.831284 -0.1428893 -0.5371681
-0.8310154 -0.1512593 -0.5352887
-0.8307286 -0.159623 -0.5333016
-0.830423 -0.16798 -0.5312065
-0.8300982 -0.17633 -0.5290036
-0.8297535 -0.1846725 -0.5266926
-0.8293886 -0.193007 -0.5242737
-0.8290027 -0.2013332 -0.5217465
-0.8285953 -0.2096506 -0.5191112
-0.8281657 -0.2179588 -0.5163676
-0.8277134 -0.2262571 -0.5135156
-0.8272375 -0.2345453 -0.5105552
-0.8267374 -0.2428227 -0.5074864
-0.8262124 -0.2510888 -0.5043089
-0.8256617 -0.2593431 -0.5010228
-0.8250846 -0.2675852 -0.497628
-0.8244802 -0.2758143 -0.4941244
-0.8238477 -0.28403 -0.4905119
-0.8231864 -0.2922316 -0.4867904
-0.8224952 -0.3004185 -0.48296
-0.8217734 -0.3085902 -0.4790205
-0.82102 -0.3167459 -0.4749719
-0.820234 -0.324885 -0.470814
-0.8194146 -0.3330069 -0.4665469
-0.8185608 -0.3411108 -0.4621705
-0.8176715 -0.349196 -0.4576848
-0.8167458 -0.3572618 -0.4530897
-0.8157826 -0.3653075 -0.4483851
-0.8147809 -0.3733321 -0.4435711
-0.8137395 -0.381335 -0.4386476
-0.8126574 -0.3893152 -0.4336146
-0.8115335 -0.3972721 -0.428472
-0.8103666 -0.4052046 -0.42322
-0.8091557 -0.4131119 -0.4178585
-0.8078994 -0.420993 -0.4123875
-0.8065967 -0.4288471 -0.406807