# vtk DataFile Version 2.0
Written badly by Kevin Korner
ASCII
DATASET POLYDATA
POINTS 350 FLOAT
0 0 0
0.00286533 0 0
0.005730538 2.613692e-05 -3.112093e-06
0.008595384 7.840707e-05 -9.293805e-06
0.01145963 0.0001568045 -1.850259e-05
0.01432302 0.0002613209 -3.069583e-05
0.01718533 0.0003919457 -4.583085e-05
0.02004632 0.0005486663 -6.386492e-05
0.02290573 0.0007314676 -8.475524e-05
0.02576334 0.0009403322 -0.000108459
0.0286189 0.001175241 -0.0001349332
0.03147218 0.001436171 -0.0001641351
0.03432293 0.0017231 -0.0001960217
0.03717091 0.002036 -0.0002305499
0.04001589 0.002374844 -0.0002676768
0.04285763 0.0027396 -0.0003073594
0.0456959 0.003130236 -0.0003495546
0.04853044 0.003546716 -0.0003942194
0.05136104 0.003989004 -0.0004413107
0.05418745 0.004457059 -0.0004907855
0.05700944 0.004950841 -0.0005426008
0.05982677 0.005470304 -0.0005967135
0.0626392 0.006015404 -0.0006530807
0.06544651 0.006586092 -0.0007116592
0.06824847 0.007182317 -0.0007724063
0.07104483 0.007804027 -0.0008352788
0.07383537 0.008451168 -0.000900234
0.07661985 0.009123682 -0.000967229
0.07939805 0.009821511 -0.001036221
0.08216973 0.01054459 -0.001107167
0.08493467 0.01129287 -0.001180025
0.08769264 0.01206626 -0.001254751
0.09044341 0.01286472 -0.001331304
0.09318675 0.01368817 -0.00140964
0.09592243 0.01453653 -0.001489718
0.09865024 0.01540973 -0.001571495
0.1013699 0.01630771 -0.001654928
0.1040813 0.01723037 -0.001739976
0.1067842 0.01817764 -0.001826596
0.1094782 0.01914945 -0.001914746
0.1121633 0.02014569 -0.002004385
0.1148391 0.0211663 -0.00209547
0.1175055 0.02221118 -0.00218796
0.1201623 0.02328024 -0.002281814
0.1228092 0.0243734 -0.002376989
0.125446 0.02549054 -0.002473445
0.1280725 0.02663159 -0.002571139
0.1306885 0.02779645 -0.002670032
0.1332938 0.02898501 -0.002770083
0.1358881 0.03019717 -0.002871249
0.1384713 0.03143283 -0.002973491
0.1410431 0.03269188 -0.003076768
0.1436034 0.03397423 -0.00318104
0.1461518 0.03527975 -0.003286267
0.1486883 0.03660833 -0.003392407
0.1512126 0.03795988 -0.003499423
0.1537245 0.03933426 -0.003607273
0.1562237 0.04073137 -0.003715918
0.1587102 0.04215108 -0.003825319
0.1611837 0.04359328 -0.003935437
0.163644 0.04505785 -0.004046232
0.1660908 0.04654465 -0.004157666
0.1685241 0.04805358 -0.0042697
0.1709435 0.04958449 -0.004382295
0.173349 0.05113725 -0.004495414
0.1757402 0.05271175 -0.004609018
0.1781171 0.05430785 -0.004723069
0.1804794 0.05592541 -0.00483753
0.182827 0.05756429 -0.004952364
0.1851596 0.05922437 -0.005067532
0.187477 0.0609055 -0.005182999
0.1897792 0.06260754 -0.005298727
0.1920658 0.06433035 -0.005414679
0.1943367 0.06607378 -0.00553082
0.1965917 0.06783769 -0.005647114
0.1988307 0.06962193 -0.005763524
0.2010535 0.07142636 -0.005880014
0.2032598 0.07325082 -0.005996551
0.2054495 0.07509516 -0.006113097
0.2076225 0.07695923 -0.00622962
0.2097785 0.07884287 -0.006346083
0.2119174 0.08074593 -0.006462453
0.214039 0.08266825 -0.006578695
0.2161432 0.08460966 -0.006694776
0.2182298 0.08657002 -0.006810662
0.2202985 0.08854915 -0.00692632
0.2223493 0.0905469 -0.007041716
0.224382 0.09256309 -0.007156819
0.2263964 0.09459756 -0.007271595
0.2283924 0.09665015 -0.007386013
0.2303698 0.09872068 -0.00750004
0.2323284 0.100809 -0.007613645
0.2342681 0.1029149 -0.007726797
0.2361888 0.1050382 -0.007839464
0.2380902 0.1071788 -0.007951617
0.2399723 0.1093365 -0.008063223
0.2418348 0.111511 -0.008174254
0.2436777 0.1137023 -0.00828468
0.2455008 0.1159101 -0.00839447
0.2473039 0.1181343 -0.008503596
0.2490869 0.1203746 -0.008612029
0.2508497 0.122631 -0.008719741
0.2525921 0.1249032 -0.008826702
0.254314 0.1271909 -0.008932886
0.2560152 0.1294941 -0.009038264
0.2576957 0.1318126 -0.009142809
0.2593552 0.1341461 -0.009246495
0.2609937 0.1364945 -0.009349294
0.262611 0.1388576 -0.009451181
0.264207 0.1412351 -0.009552129
0.2657816 0.1436269 -0.009652113
0.2673346 0.1460328 -0.009751108
0.268866 0.1484527 -0.009849088
0.2703755 0.1508862 -0.009946029
0.2718631 0.1533332 -0.01004191
0.2733287 0.1557935 -0.0101367
0.2747722 0.1582669 -0.01023038
0.2761934 0.1607532 -0.01032292
0.2775922 0.1632522 -0.01041431
0.2789685 0.1657638 -0.01050452
0.2803223 0.1682876 -0.01059353
0.2816533 0.1708234 -0.01068132
0.2829615 0.1733712 -0.01076786
0.2842469 0.1759307 -0.01085313
0.2855092 0.1785016 -0.01093712
0.2867485 0.1810837 -0.0110198
0.2879645 0.1836769 -0.01110116
0.2891572 0.186281 -0.01118117
0.2903266 0.1888957 -0.01125981
0.2914724 0.1915208 -0.01133708
0.2925947 0.1941561 -0.01141293
0.2936934 0.1968014 -0.01148737
0.2947683 0.1994564 -0.01156037
0.2958193 0.2021211 -0.01163191
0.2968465 0.204795 -0.01170199
0.2978497 0.2074781 -0.01177057
0.2988288 0.2101702 -0.01183764
0.2997837 0.2128709 -0.0119032
0.3007145 0.2155801 -0.01196722
0.3016209 0.2182975 -0.01202969
0.302503 0.221023 -0.01209059
0.3033607 0.2237563 -0.01214991
0.3041938 0.2264973 -0.01220764
0.3050024 0.2292456 -0.01226376
0.3057864 0.232001 -0.01231826
0.3065457 0.2347634 -0.01237113
0.3072802 0.2375325 -0.01242235
0.30799 0.2403081 -0.01247192
0.3086748 0.24309 -0.01251981
0.3093348 0.2458779 -0.01256603
0.3099698 0.2486716 -0.01261055
0.3105798 0.2514709 -0.01265338
0.3111647 0.2542756 -0.0126945
0.3117246 0.2570854 -0.01273389
0.3122592 0.2599002 -0.01277156
0.3127687 0.2627196 -0.01280749
0.313253 0.2655435 -0.01284167
0.313712 0.2683717 -0.0128741
0.3141457 0.2712038 -0.01290477
0.314554 0.2740398 -0.01293367
0.314937 0.2768792 -0.0129608
0.3152946 0.2797221 -0.01298615
0.3156268 0.282568 -0.01300971
0.3159335 0.2854168 -0.01303148
0.3162147 0.2882682 -0.01305145
0.3164704 0.291122 -0.01306962
0.3167007 0.293978 -0.01308598
0.3169053 0.296836 -0.01310054
0.3170845 0.2996957 -0.01311329
0.3172381 0.3025569 -0.01312421
0.317366 0.3054194 -0.01313333
0.3174685 0.3082828 -0.01314062
0.3175453 0.3111471 -0.01314609
0.3175965 0.314012 -0.01314973
0.3176221 0.3168772 -0.01315156
0.3176221 0.3197426 -0.01315156
0.3175965 0.3226078 -0.01314973
0.3175453 0.3254726 -0.01314609
0.3174685 0.3283369 -0.01314062
0.317366 0.3312004 -0.01313333
0.3172381 0.3340629 -0.01312421
0.3170845 0.3369241 -0.01311329
0.3169053 0.3397838 -0.01310054
0.3167007 0.3426417 -0.01308598
0.3164704 0.3454978 -0.01306962
0.3162147 0.3483516 -0.01305145
0.3159335 0.351203 -0.01303148
0.3156268 0.3540518 -0.01300971
0.3152946 0.3568977 -0.01298615
0.314937 0.3597405 -0.0129608
0.314554 0.36258 -0.01293367
0.3141457 0.3654159 -0.01290477
0.313712 0.3682481 -0.0128741
0.313253 0.3710762 -0.01284167
0.3127687 0.3739001 -0.01280749
0.3122592 0.3767196 -0.01277156
0.3117246 0.3795343 -0.01273389
0.3111647 0.3823442 -0.0126945
0.3105798 0.3851489 -0.01265338
0.3099698 0.3879482 -0.01261055
0.3093348 0.3907419 -0.01256603
0.3086748 0.3935298 -0.01251981
0.30799 0.3963117 -0.01247192
0.3072802 0.3990873 -0.01242235
0.3065457 0.4018564 -0.01237113
0.3057864 0.4046188 -0.01231826
0.3050024 0.4073742 -0.01226376
0.3041938 0.4101225 -0.01220764
0.3033607 0.4128634 -0.01214991
0.302503 0.4155967 -0.01209059
0.3016209 0.4183222 -0.01202969
0.3007145 0.4210397 -0.01196722
0.2997837 0.4237489 -0.0119032
0.2988288 0.4264496 -0.01183764
0.2978497 0.4291416 -0.01177057
0.2968465 0.4318247 -0.01170199
0.2958193 0.4344987 -0.01163191
0.2947683 0.4371633 -0.01156037
0.2936934 0.4398184 -0.01148737
0.2925947 0.4424637 -0.01141293
0.2914724 0.445099 -0.01133708
0.2903266 0.4477241 -0.01125981
0.2891572 0.4503388 -0.01118117
0.2879645 0.4529428 -0.01110116
0.2867485 0.455536 -0.0110198
0.2855092 0.4581182 -0.01093712
0.2842469 0.4606891 -0.01085313
0.2829615 0.4632486 -0.01076786
0.2816533 0.4657963 -0.01068132
0.2803223 0.4683322 -0.01059353
0.2789685 0.470856 -0.01050452
0.2775922 0.4733675 -0.01041431
0.2761934 0.4758665 -0.01032292
0.2747722 0.4783529 -0.01023038
0.2733287 0.4808263 -0.0101367
0.2718631 0.4832866 -0.01004191
0.2703755 0.4857336 -0.009946029
0.268866 0.4881671 -0.009849088
0.2673346 0.4905869 -0.009751108
0.2657816 0.4929929 -0.009652113
0.264207 0.4953847 -0.009552129
0.262611 0.4977622 -0.009451181
0.2609937 0.5001253 -0.009349294
0.2593552 0.5024737 -0.009246495
0.2576957 0.5048072 -0.009142809
0.2560152 0.5071256 -0.009038264
0.254314 0.5094288 -0.008932886
0.2525921 0.5117166 -0.008826702
0.2508497 0.5139888 -0.008719741
0.2490869 0.5162451 -0.008612029
0.2473039 0.5184855 -0.008503596
0.2455008 0.5207097 -0.00839447
0.2436777 0.5229175 -0.00828468
0.2418348 0.5251088 -0.008174254
0.2399723 0.5272833 -0.008063223
0.2380902 0.529441 -0.007951617
0.2361888 0.5315816 -0.007839464
0.2342681 0.5337049 -0.007726797
0.2323284 0.5358108 -0.007613645
0.2303698 0.5378991 -0.00750004
0.2283924 0.5399696 -0.007386013
0.2263964 0.5420222 -0.007271595
0.224382 0.5440567 -0.007156819
0.2223493 0.5460729 -0.007041716
0.2202985 0.5480706 -0.00692632
0.2182298 0.5500498 -0.006810662
0.2161432 0.5520101 -0.006694776
0.214039 0.5539515 -0.006578695
0.2119174 0.5558738 -0.006462453
0.2097785 0.5577769 -0.006346083
0.2076225 0.5596605 -0.00622962
0.2054495 0.5615246 -0.006113097
0.2032598 0.563369 -0.005996551
0.2010535 0.5651934 -0.005880014
0.1988307 0.5669978 -0.005763524
0.1965917 0.5687821 -0.005647114
0.1943367 0.570546 -0.00553082
0.1920658 0.5722894 -0.005414679
0.1897792 0.5740122 -0.005298727
0.187477 0.5757143 -0.005182999
0.1851596 0.5773954 -0.005067532
0.182827 0.5790555 -0.004952364
0.1804794 0.5806944 -0.00483753
0.1781171 0.5823119 -0.004723069
0.1757402 0.583908 -0.004609018
0.173349 0.5854825 -0.004495414
0.1709435 0.5870353 -0.004382295
0.1685241 0.5885662 -0.0042697
0.1660908 0.5900751 -0.004157666
0.163644 0.5915619 -0.004046232
0.1611837 0.5930265 -0.003935437
0.1587102 0.5944687 -0.003825319
0.1562237 0.5958884 -0.003715918
0.1537245 0.5972855 -0.003607273
0.1512126 0.5986599 -0.003499423
0.1486883 0.6000114 -0.003392407
0.1461518 0.60134 -0.003286267
0.1436034 0.6026455 -0.00318104
0.1410431 0.6039279 -0.003076768
0.1384713 0.6051869 -0.002973491
0.1358881 0.6064226 -0.002871249
0.1332938 0.6076348 -0.002770083
0.1306885 0.6088233 -0.002670032
0.1280725 0.6099882 -0.002571139
0.125446 0.6111292 -0.002473445
0.1228092 0.6122464 -0.002376989
0.1201623 0.6133395 -0.002281814
0.1175055 0.6144086 -0.00218796
0.1148391 0.6154535 -0.00209547
0.1121633 0.6164741 -0.002004385
0.1094782 0.6174703 -0.001914746
0.1067842 0.6184421 -0.001826596
0.1040813 0.6193894 -0.001739976
0.1013699 0.6203121 -0.001654928
0.09865024 0.62121 -0.001571495
0.09592243 0.6220832 -0.001489718
0.09318675 0.6229316 -0.00140964
0.09044341 0.6237551 -0.001331304
0.08769264 0.6245535 -0.001254751
0.08493467 0.6253269 -0.001180025
0.08216973 0.6260752 -0.001107167
0.07939805 0.6267983 -0.001036221
0.07661985 0.6274961 -0.000967229
0.07383537 0.6281686 -0.000900234
0.07104483 0.6288157 -0.0008352788
0.06824847 0.6294375 -0.0007724063
0.06544651 0.6300337 -0.0007116592
0.0626392 0.6306044 -0.0006530807
0.05982677 0.6311495 -0.0005967135
0.05700944 0.6316689 -0.0005426008
0.05418745 0.6321627 -0.0004907855
0.05136104 0.6326308 -0.0004413107
0.04853044 0.6330731 -0.0003942194
0.0456959 0.6334895 -0.0003495546
0.04285763 0.6338802 -0.0003073594
0.04001589 0.6342449 -0.0002676768
0.03717091 0.6345838 -0.0002305499
0.03432293 0.6348967 -0.0001960217
0.03147218 0.6351836 -0.0001641351
0.0286189 0.6354445 -0.0001349332
0.02576334 0.6356794 -0.000108459
0.02290573 0.6358883 -8.475524e-05
0.02004632 0.6360711 -6.386492e-05
0.01718533 0.6362278 -4.583085e-05
0.01432302 0.6363585 -3.069583e-05
0.01145963 0.636463 -1.850259e-05
0.008595384 0.6365414 -9.293805e-06
0.005730538 0.6365936 -3.112093e-06
0.00286533 0.6366198 0
0 0.6366198 0

LINES 349 1047
2 0 1
2 1 2
2 2 3
2 3 4
2 4 5
2 5 6
2 6 7
2 7 8
2 8 9
2 9 10
2 10 11
2 11 12
2 12 13
2 13 14
2 14 15
2 15 16
2 16 17
2 17 18
2 18 19
2 19 20
2 20 21
2 21 22
2 22 23
2 23 24
2 24 25
2 25 26
2 26 27
2 27 28
2 28 29
2 29 30
2 30 31
2 31 32
2 32 33
2 33 34
2 34 35
2 35 36
2 36 37
2 37 38
2 38 39
2 39 40
2 40 41
2 41 42
2 42 43
2 43 44
2 44 45
2 45 46
2 46 47
2 47 48
2 48 49
2 49 50
2 50 51
2 51 52
2 52 53
2 53 54
2 54 55
2 55 56
2 56 57
2 57 58
2 58 59
2 59 60
2 60 61
2 61 62
2 62 63
2 63 64
2 64 65
2 65 66
2 66 67
2 67 68
2 68 69
2 69 70
2 70 71
2 71 72
2 72 73
2 73 74
2 74 75
2 75 76
2 76 77
2 77 78
2 78 79
2 79 80
2 80 81
2 81 82
2 82 83
2 83 84
2 84 85
2 85 86
2 86 87
2 87 88
2 88 89
2 89 90
2 90 91
2 91 92
2 92 93
2 93 94
2 94 95
2 95 96
2 96 97
2 97 98
2 98 99
2 99 100
2 100 101
2 101 102
2 102 103
2 103 104
2 104 105
2 105 106
2 106 107
2 107 108
2 108 109
2 109 110
2 110 111
2 111 112
2 112 113
2 113 114
2 114 115
2 115 116
2 116 117
2 117 118
2 118 119
2 119 120
2 120 121
2 121 122
2 122 123
2 123 124
2 124 125
2 125 126
2 126 127
2 127 128
2 128 129
2 129 130
2 130 131
2 131 132
2 132 133
2 133 134
2 134 135
2 135 136
2 136 137
2 137 138
2 138 139
2 139 140
2 140 141
2 141 142
2 142 143
2 143 144
2 144 145
2 145 146
2 146 147
2 147 148
2 148 149
2 149 150
2 150 151
2 151 152
2 152 153
2 153 154
2 154 155
2 155 156
2 156 157
2 157 158
2 158 159
2 159 160
2 160 161
2 161 162
2 162 163
2 163 164
2 164 165
2 165 166
2 166 167
2 167 168
2 168 169
2 169 170
2 170 171
2 171 172
2 172 173
2 173 174
2 174 175
2 175 176
2 176 177
2 177 178
2 178 179
2 179 180
2 180 181
2 181 182
2 182 183
2 183 184
2 184 185
2 185 186
2 186 187
2 187 188
2 188 189
2 189 190
2 190 191
2 191 192
2 192 193
2 193 194
2 194 195
2 195 196
2 196 197
2 197 198
2 198 199
2 199 200
2 200 201
2 201 202
2 202 203
2 203 204
2 204 205
2 205 206
2 206 207
2 207 208
2 208 209
2 209 210
2 210 211
2 211 212
2 212 213
2 213 214
2 214 215
2 215 216
2 216 217
2 217 218
2 218 219
2 219 220
2 220 221
2 221 222
2 222 223
2 223 224
2 224 225
2 225 226
2 226 227
2 227 228
2 228 229
2 229 230
2 230 231
2 231 232
2 232 233
2 233 234
2 234 235
2 235 236
2 236 237
2 237 238
2 238 239
2 239 240
2 240 241
2 241 242
2 242 243
2 243 244
2 244 245
2 245 246
2 246 247
2 247 248
2 248 249
2 249 250
2 250 251
2 251 252
2 252 253
2 253 254
2 254 255
2 255 256
2 256 257
2 257 258
2 258 259
2 259 260
2 260 261
2 261 262
2 262 263
2 263 264
2 264 265
2 265 266
2 266 267
2 267 268
2 268 269
2 269 270
2 270 271
2 271 272
2 272 273
2 273 274
2 274 275
2 275 276
2 276 277
2 277 278
2 278 279
2 279 280
2 280 281
2 281 282
2 282 283
2 283 284
2 284 285
2 285 286
2 286 287
2 287 288
2 288 289
2 289 290
2 290 291
2 291 292
2 292 293
2 293 294
2 294 295
2 295 296
2 296 297
2 297 298
2 298 299
2 299 300
2 300 301
2 301 302
2 302 303
2 303 304
2 304 305
2 305 306
2 306 307
2 307 308
2 308 309
2 309 310
2 310 311
2 311 312
2 312 313
2 313 314
2 314 315
2 315 316
2 316 317
2 317 318
2 318 319
2 319 320
2 320 321
2 321 322
2 322 323
2 323 324
2 324 325
2 325 326
2 326 327
2 327 328
2 328 329
2 329 330
2 330 331
2 331 332
2 332 333
2 333 334
2 334 335
2 335 336
2 336 337
2 337 338
2 338 339
2 339 340
2 340 341
2 341 342
2 342 343
2 343 344
2 344 345
2 345 346
2 346 347
2 347 348
2 348 349


POINT_DATA 350
SCALARS a FLOAT 1
LOOKUP_TABLE default
0.0005894628
0.0005894628
0.0005894628
0.0005894628
0.0005894628
0.0005894628
0.0005894628
0.0005894628
0.0005894628
0.0005894628
0.0005894628
0.0005894628
0.0005894628
0.0005894628
0.0005894628
0.0005894628
0.0005894628
0.0005894628
0.0005894628
0.0005894628
0.0005894628
0.0005894628
0.0005894628
0.0005894628
0.0005894628
0.0005894628
0.0005894628
0.0005894628
0.0005894628
0.0005894628
0.0005894628
0.0005894628
0.0005894628
0.0005894628
0.0005894628
0.0005894628
0.0005894628
0.0005894628
0.0005894628
0.0005894628
0.0005894628
0.0005894628
0.0005894628
0.0005894628
0.0005894628
0.0005894628
0.0005894628
0.0005894628
0.0005894628
0.0005894628
0.0005894628
0.0005894628
0.0005894628
0.0005894628
0.0005894628
0.0005894628
0.0005894628
0.0005894628
0.0005894628
0.0005894628
0.0005894628
0.0005894628
0.0005894628
0.0005894628
0.0005894628
0.0005894628
0.0005894628
0.0005894628
0.0005894628
0.0005894628
0.0005894628
0.0005894628
0.0005894628
0.0005894628
0.0005894628
0.0005894628
0.0005894628
0.0005894628
0.0005894628
0.0005894628
0.0005894628
0.0005894628
0.0005894628
0.0005894628
0.0005894628
0.0005894628
0.0005894628
0.0005894628
0.0005894628
0.0005894628
0.0005894628
0.0005894628
0.0005894628
0.0005894628
0.0005894628
0.0005894628
0.0005894628
0.0005894628
0.0005894628
0.0005894628
0.0005894628
0.0005894628
0.0005894628
0.0005894628
0.0005894628
0.0005894628
0.0005894628
0.0005894628
0.0005894628
0.0005894628
0.0005894628
0.0005894628
0.0005894628
0.0005894628
0.0005894628
0.0005894628
0.0005894628
0.0005894628
0.0005894628
0.0005894628
0.0005894628
0.0005894628
0.0005894628
0.0005894628
0.0005894628
0.0005894628
0.0005894628
0.0005894628
0.0005894628
0.0005894628
0.0005894628
0.0005894628
0.0005894628
0.0005894628
0.0005894628
0.0005894628
0.0005894628
0.0005894628
0.0005894628
0.0005894628
0.0005894628
0.0005894628
0.0005894628
0.0005894628
0.0005894628
0.0005894628
0.0005894628
0.0005894628
0.0005894628
0.0005894628
0.0005894628
0.0005894628
0.0005894628
0.0005894628
0.0005894628
0.0005894628
0.0005894628
0.0005894628
0.0005894628
0.0005894628
0.0005894628
0.0005894628
0.0005894628
0.0005894628
0.0005894628
0.0005894628
0.0005894628
0.0005894628
0.0005894628
0.0005894628
0.0005894628
0.0005894628
0.0005894628
0.0005894628
0.0005894628
0.0005894628
0.0005894628
0.0005894628
0.0005894628
0.0005894628
0.0005894628
0.0005894628
0.0005894628
0.0005894628
0.0005894628
0.0005894628
0.0005894628
0.0005894628
0.0005894628
0.0005894628
0.0005894628
0.0005894628
0.0005894628
0.0005894628
0.0005894628
0.0005894628
0.0005894628
0.0005894628
0.0005894628
0.0005894628
0.0005894628
0.0005894628
0.0005894628
0.0005894628
0.0005894628
0.0005894628
0.0005894628
0.0005894628
0.0005894628
0.0005894628
0.0005894628
0.0005894628
0.0005894628
0.0005894628
0.0005894628
0.0005894628
0.0005894628
0.0005894628
0.0005894628
0.0005894628
0.0005894628
0.0005894628
0.0005894628
0.0005894628
0.0005894628
0.0005894628
0.0005894628
0.0005894628
0.0005894628
0.0005894628
0.0005894628
0.0005894628
0.0005894628
0.0005894628
0.0005894628
0.0005894628
0.0005894628
0.0005894628
0.0005894628
0.0005894628
0.0005894628
0.0005894628
0.0005894628
0.0005894628
0.0005894628
0.0005894628
0.0005894628
0.0005894628
0.0005894628
0.0005894628
0.0005894628
0.0005894628
0.0005894628
0.0005894628
0.0005894628
0.0005894628
0.0005894628
0.0005894628
0.0005894628
0.0005894628
0.0005894628
0.0005894628
0.0005894628
0.0005894628
0.0005894628
0.0005894628
0.0005894628
0.0005894628
0.0005894628
0.0005894628
0.0005894628
0.0005894628
0.0005894628
0.0005894628
0.0005894628
0.0005894628
0.0005894628
0.0005894628
0.0005894628
0.0005894628
0.0005894628
0.0005894628
0.0005894628
0.0005894628
0.0005894628
0.0005894628
0.0005894628
0.0005894628
0.0005894628
0.0005894628
0.0005894628
0.0005894628
0.0005894628
0.0005894628
0.0005894628
0.0005894628
0.0005894628
0.0005894628
0.0005894628
0.0005894628
0.0005894628
0.0005894628
0.0005894628
0.0005894628
0.0005894628
0.0005894628
0.0005894628
0.0005894628
0.0005894628
0.0005894628
0.0005894628
0.0005894628
0.0005894628
0.0005894628
0.0005894628
0.0005894628
0.0005894628
0.0005894628
0.0005894628
0.0005894628
0.0005894628
0.0005894628
0.0005894628
0.0005894628
0.0005894628
0.0005894628
0.0005894628
0.0005894628
0.0005894628
0.0005894628
0.0005894628
0.0005894628
0.0005894628
0.0005894628
0.0005894628
0.0005894628
0.0005894628
0.0005894628
0.0005894628
0.0005894628
0.0005894628
0.0005894628
0.0005894628
0.0005894628
0.0005894628
0.0005894628
0.0005894628
0.0005894628
0.0005894628
0.0005894628


SCALARS b FLOAT 1
LOOKUP_TABLE default
0.02357851
0.02357851
0.02357851
0.02357851
0.02357851
0.02357851
0.02357851
0.02357851
0.02357851
0.02357851
0.02357851
0.02357851
0.02357851
0.02357851
0.02357851
0.02357851
0.02357851
0.02357851
0.02357851
0.02357851
0.02357851
0.02357851
0.02357851
0.02357851
0.02357851
0.02357851
0.02357851
0.02357851
0.02357851
0.02357851
0.02357851
0.02357851
0.02357851
0.02357851
0.02357851
0.02357851
0.02357851
0.02357851
0.02357851
0.02357851
0.02357851
0.02357851
0.02357851
0.02357851
0.02357851
0.02357851
0.02357851
0.02357851
0.02357851
0.02357851
0.02357851
0.02357851
0.02357851
0.02357851
0.02357851
0.02357851
0.02357851
0.02357851
0.02357851
0.02357851
0.02357851
0.02357851
0.02357851
0.02357851
0.02357851
0.02357851
0.02357851
0.02357851
0.02357851
0.02357851
0.02357851
0.02357851
0.02357851
0.02357851
0.02357851
0.02357851
0.02357851
0.02357851
0.02357851
0.02357851
0.02357851
0.02357851
0.02357851
0.02357851
0.02357851
0.02357851
0.02357851
0.02357851
0.02357851
0.02357851
0.02357851
0.02357851
0.02357851
0.02357851
0.02357851
0.02357851
0.02357851
0.02357851
0.02357851
0.02357851
0.02357851
0.02357851
0.02357851
0.02357851
0.02357851
0.02357851
0.02357851
0.02357851
0.02357851
0.02357851
0.02357851
0.02357851
0.02357851
0.02357851
0.02357851
0.02357851
0.02357851
0.02357851
0.02357851
0.02357851
0.02357851
0.02357851
0.02357851
0.02357851
0.02357851
0.02357851
0.02357851
0.02357851
0.02357851
0.02357851
0.02357851
0.02357851
0.02357851
0.02357851
0.02357851
0.02357851
0.02357851
0.02357851
0.02357851
0.02357851
0.02357851
0.02357851
0.02357851
0.02357851
0.02357851
0.02357851
0.02357851
0.02357851
0.02357851
0.02357851
0.02357851
0.02357851
0.02357851
0.02357851
0.02357851
0.02357851
0.02357851
0.02357851
0.02357851
0.02357851
0.02357851
0.02357851
0.02357851
0.02357851
0.02357851
0.02357851
0.02357851
0.02357851
0.02357851
0.02357851
0.02357851
0.02357851
0.02357851
0.02357851
0.02357851
0.02357851
0.02357851
0.02357851
0.02357851
0.02357851
0.02357851
0.02357851
0.02357851
0.02357851
0.02357851
0.02357851
0.02357851
0.02357851
0.02357851
0.02357851
0.02357851
0.02357851
0.02357851
0.02357851
0.02357851
0.02357851
0.02357851
0.02357851
0.02357851
0.02357851
0.02357851
0.02357851
0.02357851
0.02357851
0.02357851
0.02357851
0.02357851
0.02357851
0.02357851
0.02357851
0.02357851
0.02357851
0.02357851
0.02357851
0.02357851
0.02357851
0.02357851
0.02357851
0.02357851
0.02357851
0.02357851
0.02357851
0.02357851
0.02357851
0.02357851
0.02357851
0.02357851
0.02357851
0.02357851
0.02357851
0.02357851
0.02357851
0.02357851
0.02357851
0.02357851
0.02357851
0.02357851
0.02357851
0.02357851
0.02357851
0.02357851
0.02357851
0.02357851
0.02357851
0.02357851
0.02357851
0.02357851
0.02357851
0.02357851
0.02357851
0.02357851
0.02357851
0.02357851
0.02357851
0.02357851
0.02357851
0.02357851
0.02357851
0.02357851
0.02357851
0.02357851
0.02357851
0.02357851
0.02357851
0.02357851
0.02357851
0.02357851
0.02357851
0.02357851
0.02357851
0.02357851
0.02357851
0.02357851
0.02357851
0.02357851
0.02357851
0.02357851
0.02357851
0.02357851
0.02357851
0.02357851
0.02357851
0.02357851
0.02357851
0.02357851
0.02357851
0.02357851
0.02357851
0.02357851
0.02357851
0.02357851
0.02357851
0.02357851
0.02357851
0.02357851
0.02357851
0.02357851
0.02357851
0.02357851
0.02357851
0.02357851
0.02357851
0.02357851
0.02357851
0.02357851
0.02357851
0.02357851
0.02357851
0.02357851
0.02357851
0.02357851
0.02357851
0.02357851
0.02357851
0.02357851
0.02357851
0.02357851
0.02357851
0.02357851
0.02357851
0.02357851
0.02357851
0.02357851
0.02357851
0.02357851
0.02357851
0.02357851
0.02357851
0.02357851
0.02357851
0.02357851
0.02357851
0.02357851
0.02357851
0.02357851
0.02357851
0.02357851
0.02357851
0.02357851
0.02357851
0.02357851
0.02357851
0.02357851
0.02357851
0.02357851
0.02357851
0.02357851
0.02357851
0.02357851
0.02357851


VECTORS d1 FLOAT
0 0.9928826 -0.1190972
-0.009186217 0.9930287 -0.1175145
-0.01836939 0.9930877 -0.1159281
-0.02754873 0.9930598 -0.1143382
-0.03672344 0.9929451 -0.112745
-0.04589273 0.9927436 -0.1111486
-0.05505583 0.9924554 -0.1095492
-0.06421194 0.9920808 -0.1079471
-0.07336029 0.9916197 -0.1063425
-0.08250009 0.9910723 -0.1047354
-0.09163056 0.9904387 -0.1031262
-0.1007509 0.9897191 -0.1015149
-0.1098605 0.9889137 -0.09990184
-0.1189583 0.9880225 -0.09828715
-0.1280438 0.9870458 -0.09667103
-0.1371161 0.9859838 -0.09505367
-0.1461744 0.9848365 -0.09343525
-0.1552181 0.9836042 -0.09181596
-0.1642463 0.982287 -0.09019598
-0.1732583 0.9808853 -0.08857552
-0.1822533 0.9793991 -0.08695474
-0.1912307 0.9778287 -0.08533385
-0.2001896 0.9761743 -0.08371302
-0.2091293 0.9744361 -0.08209244
-0.218049 0.9726144 -0.08047229
-0.2269481 0.9707094 -0.07885277
-0.2358258 0.9687214 -0.07723405
-0.2446814 0.9666505 -0.07561631
-0.2535141 0.9644971 -0.07399975
-0.2623232 0.9622614 -0.07238453
-0.2711081 0.9599437 -0.07077085
-0.2798679 0.9575443 -0.06915889
-0.288602 0.9550634 -0.06754881
-0.2973096 0.9525013 -0.06594082
-0.3059902 0.9498584 -0.06433507
-0.3146428 0.947135 -0.06273176
-0.323267 0.9443312 -0.06113106
-0.3318618 0.9414476 -0.05953315
-0.3404268 0.9384843 -0.0579382
-0.3489612 0.9354417 -0.05634639
-0.3574642 0.9323202 -0.05475789
-0.3659353 0.92912 -0.05317289
-0.3743737 0.9258416 -0.05159154
-0.3827788 0.9224852 -0.05001403
-0.3911499 0.9190513 -0.04844053
-0.3994863 0.9155401 -0.0468712
-0.4077874 0.9119522 -0.04530622
-0.4160526 0.9082877 -0.04374576
-0.4242811 0.9045471 -0.04218999
-0.4324724 0.9007309 -0.04063907
-0.4406257 0.8968393 -0.03909316
-0.4487405 0.8928728 -0.03755245
-0.4568161 0.8888317 -0.03601709
-0.4648519 0.8847165 -0.03448724
-0.4728472 0.8805277 -0.03296307
-0.4808015 0.8762655 -0.03144475
-0.488714 0.8719304 -0.02993243
-0.4965843 0.8675229 -0.02842627
-0.5044117 0.8630433 -0.02692643
-0.5121956 0.8584922 -0.02543307
-0.5199353 0.8538699 -0.02394636
-0.5276303 0.8491769 -0.02246644
-0.5352801 0.8444137 -0.02099347
-0.5428839 0.8395807 -0.0195276
-0.5504413 0.8346783 -0.018069
-0.5579517 0.829707 -0.0166178
-0.5654144 0.8246674 -0.01517417
-0.572829 0.8195598 -0.01373825
-0.5801948 0.8143847 -0.01231019
-0.5875113 0.8091427 -0.01089015
-0.594778 0.8038341 -0.009478257
-0.6019942 0.7984596 -0.008074671
-0.6091595 0.7930196 -0.006679532
-0.6162733 0.7875146 -0.005292986
-0.6233351 0.781945 -0.003915174
-0.6303443 0.7763115 -0.002546238
-0.6373004 0.7706145 -0.001186318
-0.644203 0.7648546 0.0001644473
-0.6510514 0.7590321 0.001505919
-0.6578452 0.7531478 0.002837961
-0.6645839 0.7472021 0.004160437
-0.6712669 0.7411955 0.005473213
-0.6778939 0.7351286 0.006776155
-0.6844642 0.7290018 0.008069133
-0.6909774 0.7228159 0.009352014
-0.697433 0.7165712 0.01062467
-0.7038306 0.7102684 0.01188697
-0.7101696 0.703908 0.01313879
-0.7164496 0.6974906 0.01438001
-0.7226702 0.6910167 0.01561049
-0.7288309 0.6844869 0.01683012
-0.7349312 0.6779017 0.01803877
-0.7409707 0.6712617 0.01923632
-0.746949 0.6645676 0.02042265
-0.7528656 0.6578198 0.02159765
-0.7587201 0.651019 0.0227612
-0.764512 0.6441657 0.02391318
-0.770241 0.6372606 0.02505347
-0.7759067 0.6303042 0.02618197
-0.7815085 0.6232971 0.02729857
-0.7870462 0.6162399 0.02840314
-0.7925193 0.6091332 0.02949559
-0.7979274 0.6019776 0.03057581
-0.8032701 0.5947737 0.03164368
-0.8085472 0.5875221 0.03269911
-0.8137581 0.5802235 0.03374199
-0.8189025 0.5728784 0.03477222
-0.82398 0.5654875 0.03578969
-0.8289903 0.5580513 0.03679431
-0.833933 0.5505706 0.03778598
-0.8388078 0.5430458 0.03876461
-0.8436143 0.5354777 0.03973009
-0.8483522 0.5278669 0.04068233
-0.8530212 0.520214 0.04162125
-0.8576208 0.5125196 0.04254674
-0.8621508 0.5047844 0.04345873
-0.866611 0.497009 0.04435711
-0.8710008 0.489194 0.04524181
-0.8753201 0.4813401 0.04611274
-0.8795685 0.473448 0.04696981
-0.8837458 0.4655182 0.04781294
-0.8878517 0.4575515 0.04864205
-0.8918857 0.4495485 0.04945706
-0.8958478 0.4415097 0.0502579
-0.8997376 0.433436 0.05104448
-0.9035548 0.4253279 0.05181672
-0.9072991 0.4171861 0.05257456
-0.9109704 0.4090113 0.05331793
-0.9145682 0.400804 0.05404674
-0.9180925 0.3925651 0.05476093
-0.9215429 0.3842951 0.05546044
-0.9249193 0.3759947 0.05614519
-0.9282213 0.3676646 0.05681512
-0.9314487 0.3593055 0.05747017
-0.9346014 0.3509179 0.05811027
-0.9376791 0.3425027 0.05873537
-0.9406815 0.3340604 0.0593454
-0.9436086 0.3255918 0.0599403
-0.94646 0.3170975 0.06052002
-0.9492356 0.3085782 0.0610845
-0.9519352 0.3000346 0.06163369
-0.9545585 0.2914673 0.06216754
-0.9571055 0.2828771 0.062686
-0.959576 0.2742646 0.06318901
-0.9619697 0.2656305 0.06367654
-0.9642866 0.2569755 0.06414852
-0.9665263 0.2483003 0.06460493
-0.9686889 0.2396056 0.06504571
-0.9707742 0.230892 0.06547083
-0.9727819 0.2221602 0.06588024
-0.974712 0.213411 0.0662739
-0.9765644 0.2046451 0.06665178
-0.9783388 0.195863 0.06701385
-0.9800352 0.1870656 0.06736006
-0.9816536 0.1782535 0.06769039
-0.9831936 0.1694273 0.0680048
-0.9846554 0.1605879 0.06830327
-0.9860386 0.1517359 0.06858576
-0.9873434 0.142872 0.06885225
-0.9885695 0.1339968 0.06910272
-0.9897169 0.1251112 0.06933714
-0.9907855 0.1162157 0.06955549
-0.9917753 0.1073111 0.06975774
-0.9926861 0.09839809 0.06994389
-0.9935179 0.08947737 0.07011391
-0.9942707 0.08054964 0.07026778
-0.9949444 0.07161559 0.0704055
-0.9955389 0.06267593 0.07052704
-0.9960542 0.05373135 0.07063241
-0.9964903 0.04478256 0.07072157
-0.9968472 0.03583026 0.07079454
-0.9971248 0.02687515 0.0708513
-0.9973231 0.01791794 0.07089185
-0.997442 0.00895932 0.07091618
-0.9974817 -1.932482e-14 0.07092429
-0.997442 -0.00895932 0.07091618
-0.9973231 -0.01791794 0.07089185
-0.9971248 -0.02687515 0.0708513
-0.9968472 -0.03583026 0.07079454
-0.9964903 -0.04478256 0.07072157
-0.9960542 -0.05373135 0.07063241
-0.9955389 -0.06267593 0.07052704
-0.9949444 -0.07161559 0.0704055
-0.9942707 -0.08054964 0.07026778
-0.9935179 -0.08947737 0.07011391
-0.9926861 -0.09839809 0.06994389
-0.9917753 -0.1073111 0.06975774
-0.9907855 -0.1162157 0.06955549
-0.9897169 -0.1251112 0.06933714
-0.9885695 -0.1339968 0.06910272
-0.9873434 -0.142872 0.06885225
-0.9860386 -0.1517359 0.06858576
-0.9846554 -0.1605879 0.06830327
-0.9831936 -0.1694273 0.0680048
-0.9816536 -0.1782535 0.06769039
-0.9800352 -0.1870656 0.06736006
-0.9783388 -0.195863 0.06701385
-0.9765644 -0.2046451 0.06665178
-0.974712 -0.213411 0.0662739
-0.9727819 -0.2221602 0.06588024
-0.9707742 -0.230892 0.06547083
-0.9686889 -0.2396056 0.06504571
-0.9665263 -0.2483003 0.06460493
-0.9642866 -0.2569755 0.06414852