# vtk DataFile Version 2.0
Written badly by Kevin Korner
ASCII
DATASET POLYDATA
POINTS 350 FLOAT
0 0 0
0.00286533 0 0
0.005730599 1.211443e-06 -1.849445e-05
0.008595762 2.98314e-06 -4.938147e-05
0.01146086 4.926516e-06 -8.597355e-05
0.01432597 6.949222e-06 -0.0001213566
0.01719116 9.251985e-06 -0.0001490248
0.02005645 1.22825e-05 -0.0001633017
0.02292178 1.668072e-05 -0.0001593763
0.02578698 2.323671e-05 -0.0001331689
0.02865182 3.286134e-05 -8.118564e-05
0.03151598 4.656529e-05 -4.032029e-07
0.03437905 6.544308e-05 0.0001118151
0.03724055 9.066008e-05 0.0002577798
0.04009992 0.0001234415 0.000439519
0.04295654 0.0001650625 0.0006588108
0.04580973 0.0002168396 0.0009172082
0.04865873 0.0002801219 0.001216057
0.05150274 0.000356284 0.001556513
0.05434091 0.0004467179 0.001939549
0.05717234 0.0005528266 0.002365972
0.0599961 0.0006760169 0.002836425
0.06281121 0.0008176933 0.003351397
0.06561667 0.0009792516 0.003911231
0.06841145 0.001162073 0.004516128
0.0711945 0.001367519 0.005166155
0.07396476 0.001596924 0.005861247
0.07672115 0.001851595 0.006601217
0.0794626 0.0021328 0.007385757
0.08218802 0.002441771 0.008214446
0.08489634 0.002779694 0.009086758
0.08758649 0.003147708 0.01000206
0.09025741 0.003546901 0.01095963
0.09290807 0.003978308 0.01195864
0.09553744 0.004442908 0.01299819
0.09814453 0.004941619 0.0140773
0.1007284 0.005475301 0.01519491
0.103288 0.006044749 0.01634991
0.1058226 0.006650696 0.01754109
0.1083312 0.007293811 0.01876722
0.110813 0.007974696 0.02002702
0.1132673 0.008693889 0.02131913
0.1156932 0.009451863 0.0226422
0.1180901 0.01024903 0.02399481
0.1204573 0.01108572 0.02537553
0.1227942 0.01196223 0.02678291
0.1251002 0.01287877 0.02821546
0.1273749 0.01383549 0.02967172
0.1296177 0.0148325 0.03115019
0.1318283 0.01586984 0.03264937
0.1340061 0.01694748 0.03416778
0.1361511 0.01806537 0.03570394
0.1382627 0.01922338 0.03725636
0.1403409 0.02042134 0.03882359
0.1423854 0.02165904 0.04040419
0.144396 0.02293621 0.04199673
0.1463728 0.02425256 0.04359982
0.1483155 0.02560773 0.04521208
0.1502242 0.02700136 0.04683218
0.1520989 0.02843303 0.04845878
0.1539397 0.0299023 0.05009062
0.1557467 0.03140869 0.05172645
0.1575199 0.0329517 0.05336504
0.1592595 0.03453082 0.05500524
0.1609657 0.03614548 0.05664589
0.1626388 0.03779513 0.0582859
0.1642789 0.03947918 0.05992421
0.1658864 0.04119704 0.06155979
0.1674615 0.04294808 0.06319167
0.1690045 0.0447317 0.0648189
0.1705158 0.04654725 0.06644058
0.1719957 0.0483941 0.06805585
0.1734446 0.05027159 0.06966387
0.1748629 0.05217909 0.07126388
0.176251 0.05411593 0.07285512
0.1776092 0.05608146 0.07443688
0.1789381 0.05807503 0.07600849
0.180238 0.06009598 0.07756932
0.1815093 0.06214367 0.07911875
0.1827526 0.06421745 0.08065624
0.1839682 0.06631668 0.08218125
0.1851566 0.06844071 0.08369327
0.1863183 0.07058892 0.08519184
0.1874538 0.07276069 0.08667653
0.1885634 0.0749554 0.08814691
0.1896478 0.07717244 0.08960263
0.1907072 0.07941122 0.09104332
0.1917422 0.08167114 0.09246865
0.1927533 0.08395163 0.09387834
0.1937409 0.08625211 0.0952721
0.1947054 0.08857203 0.09664968
0.1956474 0.09091084 0.09801086
0.1965672 0.093268 0.09935542
0.1974653 0.09564299 0.1006832
0.1983422 0.09803529 0.1019939
0.1991982 0.1004444 0.1032876
0.2000339 0.1028698 0.104564
0.2008495 0.1053111 0.105823
0.2016456 0.1077677 0.1070645
0.2024226 0.1102392 0.1082885
0.2031808 0.1127251 0.1094948
0.2039206 0.1152251 0.1106835
0.2046424 0.1177387 0.1118543
0.2053467 0.1202655 0.1130074
0.2060337 0.122805 0.1141427
0.2067039 0.1253569 0.1152602
0.2073575 0.1279208 0.1163598
0.207995 0.1304964 0.1174416
0.2086167 0.1330832 0.1185055
0.2092229 0.1356809 0.1195517
0.209814 0.1382892 0.1205801
0.2103902 0.1409078 0.1215907
0.2109519 0.1435362 0.1225836
0.2114993 0.1461743 0.1235588
0.2120328 0.1488216 0.1245164
0.2125527 0.151478 0.1254564
0.2130592 0.154143 0.1263789
0.2135527 0.1568165 0.127284
0.2140333 0.1594982 0.1281716
0.2145013 0.1621877 0.1290419
0.214957 0.1648849 0.1298949
0.2154006 0.1675895 0.1307308
0.2158324 0.1703012 0.1315494
0.2162526 0.1730198 0.1323511
0.2166614 0.1757451 0.1331357
0.2170591 0.1784769 0.1339035
0.2174457 0.1812149 0.1346544
0.2178217 0.183959 0.1353885
0.218187 0.1867089 0.136106
0.218542 0.1894644 0.1368068
0.2188868 0.1922254 0.1374911
0.2192216 0.1949916 0.138159
0.2195466 0.1977629 0.1388105
0.219862 0.2005391 0.1394457
0.2201678 0.20332 0.1400647
0.2204643 0.2061054 0.1406675
0.2207516 0.2088953 0.1412542
0.2210298 0.2116894 0.1418249
0.2212991 0.2144876 0.1423797
0.2215597 0.2172897 0.1429187
0.2218117 0.2200955 0.1434418
0.2220551 0.2229051 0.1439492
0.2222901 0.2257181 0.144441
0.2225169 0.2285344 0.1449171
0.2227355 0.231354 0.1453777
0.222946 0.2341767 0.1458229
0.2231486 0.2370024 0.1462526
0.2233434 0.2398309 0.1466669
0.2235304 0.2426622 0.147066
0.2237097 0.245496 0.1474498
0.2238815 0.2483323 0.1478184
0.2240457 0.251171 0.1481719
0.2242026 0.254012 0.1485103
0.2243521 0.2568551 0.1488336
0.2244943 0.2597002 0.1491419
0.2246293 0.2625473 0.1494353
0.2247572 0.2653962 0.1497138
0.2248781 0.2682468 0.1499773
0.2249919 0.2710991 0.150226
0.2250987 0.2739528 0.1504599
0.2251986 0.276808 0.1506791
0.2252916 0.2796645 0.1508834
0.2253779 0.2825223 0.1510731
0.2254573 0.2853812 0.1512481
0.22553 0.2882411 0.1514084
0.225596 0.2911019 0.151554
0.2256552 0.2939637 0.1516851
0.2257079 0.2968261 0.1518015
0.2257539 0.2996893 0.1519033
0.2257933 0.302553 0.1519906
0.2258261 0.3054172 0.1520633
0.2258523 0.3082819 0.1521214
0.2258719 0.3111468 0.152165
0.225885 0.3140119 0.1521941
0.2258916 0.3168772 0.1522086
0.2258916 0.3197426 0.1522086
0.225885 0.3226078 0.1521941
0.2258719 0.325473 0.152165
0.2258523 0.3283379 0.1521214
0.2258261 0.3312025 0.1520633
0.2257933 0.3340668 0.1519906
0.2257539 0.3369305 0.1519033
0.2257079 0.3397936 0.1518015
0.2256552 0.3426561 0.1516851
0.225596 0.3455178 0.151554
0.22553 0.3483787 0.1514084
0.2254573 0.3512386 0.1512481
0.2253779 0.3540975 0.1510731
0.2252916 0.3569552 0.1508834
0.2251986 0.3598118 0.1506791
0.2250987 0.3626669 0.1504599
0.2249919 0.3655207 0.150226
0.2248781 0.368373 0.1499773
0.2247572 0.3712236 0.1497138
0.2246293 0.3740725 0.1494353
0.2244943 0.3769196 0.1491419
0.2243521 0.3797647 0.1488336
0.2242026 0.3826078 0.1485103
0.2240457 0.3854487 0.1481719
0.2238815 0.3882874 0.1478184
0.2237097 0.3911238 0.1474498
0.2235304 0.3939576 0.147066
0.2233434 0.3967888 0.1466669
0.2231486 0.3996174 0.1462526
0.222946 0.402443 0.1458229
0.2227355 0.4052657 0.1453777
0.2225169 0.4080853 0.1449171
0.2222901 0.4109017 0.144441
0.2220551 0.4137147 0.1439492
0.2218117 0.4165242 0.1434418
0.2215597 0.4193301 0.1429187
0.2212991 0.4221322 0.1423797
0.2210298 0.4249304 0.1418249
0.2207516 0.4277245 0.1412542
0.2204643 0.4305143 0.1406675
0.2201678 0.4332998 0.1400647
0.219862 0.4360807 0.1394457
0.2195466 0.4388569 0.1388105
0.2192216 0.4416282 0.138159
0.2188868 0.4443944 0.1374911
0.218542 0.4471554 0.1368068
0.218187 0.4499109 0.136106
0.2178217 0.4526608 0.1353885
0.2174457 0.4554048 0.1346544
0.2170591 0.4581429 0.1339035
0.2166614 0.4608746 0.1331357
0.2162526 0.4635999 0.1323511
0.2158324 0.4663186 0.1315494
0.2154006 0.4690303 0.1307308
0.214957 0.4717349 0.1298949
0.2145013 0.474432 0.1290419
0.2140333 0.4771216 0.1281716
0.2135527 0.4798032 0.127284
0.2130592 0.4824767 0.1263789
0.2125527 0.4851418 0.1254564
0.2120328 0.4877981 0.1245164
0.2114993 0.4904455 0.1235588
0.2109519 0.4930835 0.1225836
0.2103902 0.495712 0.1215907
0.209814 0.4983305 0.1205801
0.2092229 0.5009388 0.1195517
0.2086167 0.5035366 0.1185055
0.207995 0.5061234 0.1174416
0.2073575 0.5086989 0.1163598
0.2067039 0.5112628 0.1152602
0.2060337 0.5138148 0.1141427
0.2053467 0.5163543 0.1130074
0.2046424 0.5188811 0.1118543
0.2039206 0.5213946 0.1106835
0.2031808 0.5238946 0.1094948
0.2024226 0.5263806 0.1082885
0.2016456 0.5288521 0.1070645
0.2008495 0.5313087 0.105823
0.2000339 0.53375 0.104564
0.1991982 0.5361754 0.1032876
0.1983422 0.5385845 0.1019939
0.1974653 0.5409768 0.1006832
0.1965672 0.5433518 0.09935542
0.1956474 0.5457089 0.09801086
0.1947054 0.5480477 0.09664968
0.1937409 0.5503677 0.0952721
0.1927533 0.5526681 0.09387834
0.1917422 0.5549486 0.09246865
0.1907072 0.5572086 0.09104332
0.1896478 0.5594473 0.08960263
0.1885634 0.5616644 0.08814691
0.1874538 0.5638591 0.08667653
0.1863183 0.5660308 0.08519184
0.1851566 0.5681791 0.08369327
0.1839682 0.5703031 0.08218125
0.1827526 0.5724023 0.08065624
0.1815093 0.5744761 0.07911875
0.180238 0.5765238 0.07756932
0.1789381 0.5785447 0.07600849
0.1776092 0.5805383 0.07443688
0.176251 0.5825038 0.07285512
0.1748629 0.5844407 0.07126388
0.1734446 0.5863482 0.06966387
0.1719957 0.5882257 0.06805585
0.1705158 0.5900725 0.06644058
0.1690045 0.5918881 0.0648189
0.1674615 0.5936717 0.06319167
0.1658864 0.5954227 0.06155979
0.1642789 0.5971406 0.05992421
0.1626388 0.5988246 0.0582859
0.1609657 0.6004743 0.05664589
0.1592595 0.602089 0.05500524
0.1575199 0.6036681 0.05336504
0.1557467 0.6052111 0.05172645
0.1539397 0.6067175 0.05009062
0.1520989 0.6081867 0.04845878
0.1502242 0.6096184 0.04683218
0.1483155 0.611012 0.04521208
0.1463728 0.6123672 0.04359982
0.144396 0.6136836 0.04199673
0.1423854 0.6149607 0.04040419
0.1403409 0.6161984 0.03882359
0.1382627 0.6173964 0.03725636
0.1361511 0.6185544 0.03570394
0.1340061 0.6196723 0.03416778
0.1318283 0.6207499 0.03264937
0.1296177 0.6217873 0.03115019
0.1273749 0.6227843 0.02967172
0.1251002 0.623741 0.02821546
0.1227942 0.6246575 0.02678291
0.1204573 0.6255341 0.02537553
0.1180901 0.6263707 0.02399481
0.1156932 0.6271679 0.0226422
0.1132673 0.6279259 0.02131913
0.110813 0.6286451 0.02002702
0.1083312 0.629326 0.01876722
0.1058226 0.6299691 0.01754109
0.103288 0.630575 0.01634991
0.1007284 0.6311445 0.01519491
0.09814453 0.6316782 0.0140773
0.09553744 0.6321769 0.01299819
0.09290807 0.6326415 0.01195864
0.09025741 0.6330729 0.01095963
0.08758649 0.6334721 0.01000206
0.08489634 0.6338401 0.009086758
0.08218802 0.634178 0.008214446
0.0794626 0.634487 0.007385757
0.07672115 0.6347682 0.006601217
0.07396476 0.6350228 0.005861247
0.0711945 0.6352523 0.005166155
0.06841145 0.6354577 0.004516128
0.06561667 0.6356405 0.003911231
0.06281121 0.6358021 0.003351397
0.0599961 0.6359438 0.002836425
0.05717234 0.6360669 0.002365972
0.05434091 0.6361731 0.001939549
0.05150274 0.6362635 0.001556513
0.04865873 0.6363397 0.001216057
0.04580973 0.6364029 0.0009172082
0.04295654 0.6364547 0.0006588108
0.04009992 0.6364963 0.000439519
0.03724055 0.6365291 0.0002577798
0.03437905 0.6365543 0.0001118151
0.03151598 0.6365732 -4.032029e-07
0.02865182 0.6365869 -8.118564e-05
0.02578698 0.6365965 -0.0001331689
0.02292178 0.6366031 -0.0001593763
0.02005645 0.6366075 -0.0001633017
0.01719116 0.6366105 -0.0001490248
0.01432597 0.6366128 -0.0001213566
0.01146086 0.6366148 -8.597355e-05
0.008595762 0.6366168 -4.938147e-05
0.005730599 0.6366186 -1.849445e-05
0.00286533 0.6366198 0
0 0.6366198 0

LINES 349 1047
2 0 1
2 1 2
2 2 3
2 3 4
2 4 5
2 5 6
2 6 7
2 7 8
2 8 9
2 9 10
2 10 11
2 11 12
2 12 13
2 13 14
2 14 15
2 15 16
2 16 17
2 17 18
2 18 19
2 19 20
2 20 21
2 21 22
2 22 23
2 23 24
2 24 25
2 25 26
2 26 27
2 27 28
2 28 29
2 29 30
2 30 31
2 31 32
2 32 33
2 33 34
2 34 35
2 35 36
2 36 37
2 37 38
2 38 39
2 39 40
2 40 41
2 41 42
2 42 43
2 43 44
2 44 45
2 45 46
2 46 47
2 47 48
2 48 49
2 49 50
2 50 51
2 51 52
2 52 53
2 53 54
2 54 55
2 55 56
2 56 57
2 57 58
2 58 59
2 59 60
2 60 61
2 61 62
2 62 63
2 63 64
2 64 65
2 65 66
2 66 67
2 67 68
2 68 69
2 69 70
2 70 71
2 71 72
2 72 73
2 73 74
2 74 75
2 75 76
2 76 77
2 77 78
2 78 79
2 79 80
2 80 81
2 81 82
2 82 83
2 83 84
2 84 85
2 85 86
2 86 87
2 87 88
2 88 89
2 89 90
2 90 91
2 91 92
2 92 93
2 93 94
2 94 95
2 95 96
2 96 97
2 97 98
2 98 99
2 99 100
2 100 101
2 101 102
2 102 103
2 103 104
2 104 105
2 105 106
2 106 107
2 107 108
2 108 109
2 109 110
2 110 111
2 111 112
2 112 113
2 113 114
2 114 115
2 115 116
2 116 117
2 117 118
2 118 119
2 119 120
2 120 121
2 121 122
2 122 123
2 123 124
2 124 125
2 125 126
2 126 127
2 127 128
2 128 129
2 129 130
2 130 131
2 131 132
2 132 133
2 133 134
2 134 135
2 135 136
2 136 137
2 137 138
2 138 139
2 139 140
2 140 141
2 141 142
2 142 143
2 143 144
2 144 145
2 145 146
2 146 147
2 147 148
2 148 149
2 149 150
2 150 151
2 151 152
2 152 153
2 153 154
2 154 155
2 155 156
2 156 157
2 157 158
2 158 159
2 159 160
2 160 161
2 161 162
2 162 163
2 163 164
2 164 165
2 165 166
2 166 167
2 167 168
2 168 169
2 169 170
2 170 171
2 171 172
2 172 173
2 173 174
2 174 175
2 175 176
2 176 177
2 177 178
2 178 179
2 179 180
2 180 181
2 181 182
2 182 183
2 183 184
2 184 185
2 185 186
2 186 187
2 187 188
2 188 189
2 189 190
2 190 191
2 191 192
2 192 193
2 193 194
2 194 195
2 195 196
2 196 197
2 197 198
2 198 199
2 199 200
2 200 201
2 201 202
2 202 203
2 203 204
2 204 205
2 205 206
2 206 207
2 207 208
2 208 209
2 209 210
2 210 211
2 211 212
2 212 213
2 213 214
2 214 215
2 215 216
2 216 217
2 217 218
2 218 219
2 219 220
2 220 221
2 221 222
2 222 223
2 223 224
2 224 225
2 225 226
2 226 227
2 227 228
2 228 229
2 229 230
2 230 231
2 231 232
2 232 233
2 233 234
2 234 235
2 235 236
2 236 237
2 237 238
2 238 239
2 239 240
2 240 241
2 241 242
2 242 243
2 243 244
2 244 245
2 245 246
2 246 247
2 247 248
2 248 249
2 249 250
2 250 251
2 251 252
2 252 253
2 253 254
2 254 255
2 255 256
2 256 257
2 257 258
2 258 259
2 259 260
2 260 261
2 261 262
2 262 263
2 263 264
2 264 265
2 265 266
2 266 267
2 267 268
2 268 269
2 269 270
2 270 271
2 271 272
2 272 273
2 273 274
2 274 275
2 275 276
2 276 277
2 277 278
2 278 279
2 279 280
2 280 281
2 281 282
2 282 283
2 283 284
2 284 285
2 285 286
2 286 287
2 287 288
2 288 289
2 289 290
2 290 291
2 291 292
2 292 293
2 293 294
2 294 295
2 295 296
2 296 297
2 297 298
2 298 299
2 299 300
2 300 301
2 301 302
2 302 303
2 303 304
2 304 305
2 305 306
2 306 307
2 307 308
2 308 309
2 309 310
2 310 311
2 311 312
2 312 313
2 313 314
2 314 315
2 315 316
2 316 317
2 317 318
2 318 319
2 319 320
2 320 321
2 321 322
2 322 323
2 323 324
2 324 325
2 325 326
2 326 327
2 327 328
2 328 329
2 329 330
2 330 331
2 331 332
2 332 333
2 333 334
2 334 335
2 335 336
2 336 337
2 337 338
2 338 339
2 339 340
2 340 341
2 341 342
2 342 343
2 343 344
2 344 345
2 345 346
2 346 347
2 347 348
2 348 349


POINT_DATA 350
SCALARS a FLOAT 1
LOOKUP_TABLE default
0.0005894628
0.0005894628
0.0005894628
0.0005894628
0.0005894628
0.0005894628
0.0005894628
0.0005894628
0.0005894628
0.0005894628
0.0005894628
0.0005894628
0.0005894628
0.0005894628
0.0005894628
0.0005894628
0.0005894628
0.0005894628
0.0005894628
0.0005894628
0.0005894628
0.0005894628
0.0005894628
0.0005894628
0.0005894628
0.0005894628
0.0005894628
0.0005894628
0.0005894628
0.0005894628
0.0005894628
0.0005894628
0.0005894628
0.0005894628
0.0005894628
0.0005894628
0.0005894628
0.0005894628
0.0005894628
0.0005894628
0.0005894628
0.0005894628
0.0005894628
0.0005894628
0.0005894628
0.0005894628
0.0005894628
0.0005894628
0.0005894628
0.0005894628
0.0005894628
0.0005894628
0.0005894628
0.0005894628
0.0005894628
0.0005894628
0.0005894628
0.0005894628
0.0005894628
0.0005894628
0.0005894628
0.0005894628
0.0005894628
0.0005894628
0.0005894628
0.0005894628
0.0005894628
0.0005894628
0.0005894628
0.0005894628
0.0005894628
0.0005894628
0.0005894628
0.0005894628
0.0005894628
0.0005894628
0.0005894628
0.0005894628
0.0005894628
0.0005894628
0.0005894628
0.0005894628
0.0005894628
0.0005894628
0.0005894628
0.0005894628
0.0005894628
0.0005894628
0.0005894628
0.0005894628
0.0005894628
0.0005894628
0.0005894628
0.0005894628
0.0005894628
0.0005894628
0.0005894628
0.0005894628
0.0005894628
0.0005894628
0.0005894628
0.0005894628
0.0005894628
0.0005894628
0.0005894628
0.0005894628
0.0005894628
0.0005894628
0.0005894628
0.0005894628
0.0005894628
0.0005894628
0.0005894628
0.0005894628
0.0005894628
0.0005894628
0.0005894628
0.0005894628
0.0005894628
0.0005894628
0.0005894628
0.0005894628
0.0005894628
0.0005894628
0.0005894628
0.0005894628
0.0005894628
0.0005894628
0.0005894628
0.0005894628
0.0005894628
0.0005894628
0.0005894628
0.0005894628
0.0005894628
0.0005894628
0.0005894628
0.0005894628
0.0005894628
0.0005894628
0.0005894628
0.0005894628
0.0005894628
0.0005894628
0.0005894628
0.0005894628
0.0005894628
0.0005894628
0.0005894628
0.0005894628
0.0005894628
0.0005894628
0.0005894628
0.0005894628
0.0005894628
0.0005894628
0.0005894628
0.0005894628
0.0005894628
0.0005894628
0.0005894628
0.0005894628
0.0005894628
0.0005894628
0.0005894628
0.0005894628
0.0005894628
0.0005894628
0.0005894628
0.0005894628
0.0005894628
0.0005894628
0.0005894628
0.0005894628
0.0005894628
0.0005894628
0.0005894628
0.0005894628
0.0005894628
0.0005894628
0.0005894628
0.0005894628
0.0005894628
0.0005894628
0.0005894628
0.0005894628
0.0005894628
0.0005894628
0.0005894628
0.0005894628
0.0005894628
0.0005894628
0.0005894628
0.0005894628
0.0005894628
0.0005894628
0.0005894628
0.0005894628
0.0005894628
0.0005894628
0.0005894628
0.0005894628
0.0005894628
0.0005894628
0.0005894628
0.0005894628
0.0005894628
0.0005894628
0.0005894628
0.0005894628
0.0005894628
0.0005894628
0.0005894628
0.0005894628
0.0005894628
0.0005894628
0.0005894628
0.0005894628
0.0005894628
0.0005894628
0.0005894628
0.0005894628
0.0005894628
0.0005894628
0.0005894628
0.0005894628
0.0005894628
0.0005894628
0.0005894628
0.0005894628
0.0005894628
0.0005894628
0.0005894628
0.0005894628
0.0005894628
0.0005894628
0.0005894628
0.0005894628
0.0005894628
0.0005894628
0.0005894628
0.0005894628
0.0005894628
0.0005894628
0.0005894628
0.0005894628
0.0005894628
0.0005894628
0.0005894628
0.0005894628
0.0005894628
0.0005894628
0.0005894628
0.0005894628
0.0005894628
0.0005894628
0.0005894628
0.0005894628
0.0005894628
0.0005894628
0.0005894628
0.0005894628
0.0005894628
0.0005894628
0.0005894628
0.0005894628
0.0005894628
0.0005894628
0.0005894628
0.0005894628
0.0005894628
0.0005894628
0.0005894628
0.0005894628
0.0005894628
0.0005894628
0.0005894628
0.0005894628
0.0005894628
0.0005894628
0.0005894628
0.0005894628
0.0005894628
0.0005894628
0.0005894628
0.0005894628
0.0005894628
0.0005894628
0.0005894628
0.0005894628
0.0005894628
0.0005894628
0.0005894628
0.0005894628
0.0005894628
0.0005894628
0.0005894628
0.0005894628
0.0005894628
0.0005894628
0.0005894628
0.0005894628
0.0005894628
0.0005894628
0.0005894628
0.0005894628
0.0005894628
0.0005894628
0.0005894628
0.0005894628
0.0005894628
0.0005894628
0.0005894628
0.0005894628
0.0005894628
0.0005894628
0.0005894628
0.0005894628
0.0005894628
0.0005894628
0.0005894628
0.0005894628
0.0005894628
0.0005894628
0.0005894628
0.0005894628
0.0005894628
0.0005894628
0.0005894628
0.0005894628
0.0005894628
0.0005894628
0.0005894628
0.0005894628
0.0005894628
0.0005894628
0.0005894628
0.0005894628
0.0005894628
0.0005894628
0.0005894628
0.0005894628
0.0005894628
0.0005894628
0.0005894628
0.0005894628
0.0005894628
0.0005894628
0.0005894628
0.0005894628


SCALARS b FLOAT 1
LOOKUP_TABLE default
0.02357851
0.02357851
0.02357851
0.02357851
0.02357851
0.02357851
0.02357851
0.02357851
0.02357851
0.02357851
0.02357851
0.02357851
0.02357851
0.02357851
0.02357851
0.02357851
0.02357851
0.02357851
0.02357851
0.02357851
0.02357851
0.02357851
0.02357851
0.02357851
0.02357851
0.02357851
0.02357851
0.02357851
0.02357851
0.02357851
0.02357851
0.02357851
0.02357851
0.02357851
0.02357851
0.02357851
0.02357851
0.02357851
0.02357851
0.02357851
0.02357851
0.02357851
0.02357851
0.02357851
0.02357851
0.02357851
0.02357851
0.02357851
0.02357851
0.02357851
0.02357851
0.02357851
0.02357851
0.02357851
0.02357851
0.02357851
0.02357851
0.02357851
0.02357851
0.02357851
0.02357851
0.02357851
0.02357851
0.02357851
0.02357851
0.02357851
0.02357851
0.02357851
0.02357851
0.02357851
0.02357851
0.02357851
0.02357851
0.02357851
0.02357851
0.02357851
0.02357851
0.02357851
0.02357851
0.02357851
0.02357851
0.02357851
0.02357851
0.02357851
0.02357851
0.02357851
0.02357851
0.02357851
0.02357851
0.02357851
0.02357851
0.02357851
0.02357851
0.02357851
0.02357851
0.02357851
0.02357851
0.02357851
0.02357851
0.02357851
0.02357851
0.02357851
0.02357851
0.02357851
0.02357851
0.02357851
0.02357851
0.02357851
0.02357851
0.02357851
0.02357851
0.02357851
0.02357851
0.02357851
0.02357851
0.02357851
0.02357851
0.02357851
0.02357851
0.02357851
0.02357851
0.02357851
0.02357851
0.02357851
0.02357851
0.02357851
0.02357851
0.02357851
0.02357851
0.02357851
0.02357851
0.02357851
0.02357851
0.02357851
0.02357851
0.02357851
0.02357851
0.02357851
0.02357851
0.02357851
0.02357851
0.02357851
0.02357851
0.02357851
0.02357851
0.02357851
0.02357851
0.02357851
0.02357851
0.02357851
0.02357851
0.02357851
0.02357851
0.02357851
0.02357851
0.02357851
0.02357851
0.02357851
0.02357851
0.02357851
0.02357851
0.02357851
0.02357851
0.02357851
0.02357851
0.02357851
0.02357851
0.02357851
0.02357851
0.02357851
0.02357851
0.02357851
0.02357851
0.02357851
0.02357851
0.02357851
0.02357851
0.02357851
0.02357851
0.02357851
0.02357851
0.02357851
0.02357851
0.02357851
0.02357851
0.02357851
0.02357851
0.02357851
0.02357851
0.02357851
0.02357851
0.02357851
0.02357851
0.02357851
0.02357851
0.02357851
0.02357851
0.02357851
0.02357851
0.02357851
0.02357851
0.02357851
0.02357851
0.02357851
0.02357851
0.02357851
0.02357851
0.02357851
0.02357851
0.02357851
0.02357851
0.02357851
0.02357851
0.02357851
0.02357851
0.02357851
0.02357851
0.02357851
0.02357851
0.02357851
0.02357851
0.02357851
0.02357851
0.02357851
0.02357851
0.02357851
0.02357851
0.02357851
0.02357851
0.02357851
0.02357851
0.02357851
0.02357851
0.02357851
0.02357851
0.02357851
0.02357851
0.02357851
0.02357851
0.02357851
0.02357851
0.02357851
0.02357851
0.02357851
0.02357851
0.02357851
0.02357851
0.02357851
0.02357851
0.02357851
0.02357851
0.02357851
0.02357851
0.02357851
0.02357851
0.02357851
0.02357851
0.02357851
0.02357851
0.02357851
0.02357851
0.02357851
0.02357851
0.02357851
0.02357851
0.02357851
0.02357851
0.02357851
0.02357851
0.02357851
0.02357851
0.02357851
0.02357851
0.02357851
0.02357851
0.02357851
0.02357851
0.02357851
0.02357851
0.02357851
0.02357851
0.02357851
0.02357851
0.02357851
0.02357851
0.02357851
0.02357851
0.02357851
0.02357851
0.02357851
0.02357851
0.02357851
0.02357851
0.02357851
0.02357851
0.02357851
0.02357851
0.02357851
0.02357851
0.02357851
0.02357851
0.02357851
0.02357851
0.02357851
0.02357851
0.02357851
0.02357851
0.02357851
0.02357851
0.02357851
0.02357851
0.02357851
0.02357851
0.02357851
0.02357851
0.02357851
0.02357851
0.02357851
0.02357851
0.02357851
0.02357851
0.02357851
0.02357851
0.02357851
0.02357851
0.02357851
0.02357851
0.02357851
0.02357851
0.02357851
0.02357851
0.02357851
0.02357851
0.02357851
0.02357851
0.02357851
0.02357851
0.02357851
0.02357851
0.02357851
0.02357851
0.02357851
0.02357851
0.02357851
0.02357851
0.02357851
0.02357851
0.02357851
0.02357851
0.02357851


VECTORS d1 FLOAT
0 -0.07219377 0.9973906
0.006467629 -0.04999025 0.9987288
0.01079263 -0.02792308 0.9995518
0.01277445 -0.005953551 0.9999007
0.01233584 0.01598824 0.9997961
0.009618722 0.03797451 0.9992324
0.00491014 0.06004651 0.9981835
-0.001491544 0.08221158 0.9966138
-0.009335359 0.1044558 0.9944857
-0.01842162 0.1267542 0.9917631
-0.02859105 0.1490766 0.9884122
-0.03971384 0.1713898 0.9844025
-0.05168134 0.1936597 0.9797066
-0.06440029 0.2158512 0.9743002
-0.07778872 0.237929 0.9681626
-0.0917732 0.2598579 0.961276
-0.1062867 0.281603 0.9536262
-0.1212675 0.3031297 0.9452019
-0.1366575 0.3244038 0.9359951
-0.1524023 0.345392 0.926001
-0.1684499 0.3660615 0.9152178
-0.1847508 0.3863805 0.9036466
-0.2012575 0.4063185 0.8912916
-0.2179243 0.4258456 0.8781597
-0.2347073 0.4449335 0.8642608
-0.251564 0.4635552 0.849607
-0.2684536 0.4816852 0.8342135
-0.2853367 0.4992992 0.8180973
-0.3021756 0.5163749 0.8012783
-0.3189338 0.5328916 0.7837779
-0.3355765 0.5488301 0.7656199
-0.3520706 0.5641733 0.7468299
-0.3683841 0.5789057 0.7274348
-0.3844872 0.5930137 0.7074633
-0.4003512 0.6064857 0.6869454
-0.4159494 0.6193119 0.6659121
-0.4312566 0.6314842 0.6443954
-0.4462492 0.6429967 0.6224282
-0.4609056 0.653845 0.6000439
-0.4752056 0.6640267 0.5772765
-0.4891308 0.6735411 0.5541601
-0.5026646 0.6823891 0.5307292
-0.5157919 0.6905732 0.5070181
-0.5284995 0.6980977 0.4830609
-0.5407755 0.7049683 0.4588917
-0.5526099 0.7111919 0.4345438
-0.5639941 0.716777 0.4100504
-0.5749211 0.7217333 0.3854437
-0.5853853 0.7260714 0.3607552
-0.5953826 0.7298034 0.3360158
-0.6049101 0.7329419 0.3112553
-0.6139665 0.7355008 0.2865025
-0.6225515 0.7374945 0.2617852
-0.6306659 0.7389383 0.23713
-0.638312 0.7398479 0.2125626
-0.6454927 0.7402397 0.1881073
-0.6522121 0.7401305 0.1637871
-0.6584753 0.7395373 0.1396241
-0.664288 0.7384776 0.1156389
-0.6696568 0.736969 0.09185092
-0.674589 0.7350291 0.06827831
-0.6790925 0.7326758 0.04493803
-0.683176 0.7299269 0.0218458
-0.6868483 0.7268001 -0.000983854
-0.6901191 0.723313 -0.02353761
-0.6929981 0.719483 -0.04580327
-0.6954956 0.7153273 -0.06776978
-0.6976222 0.7108629 -0.08942718
-0.6993886 0.7061065 -0.1107665
-0.7008057 0.7010745 -0.1317799
-0.7018847 0.6957827 -0.1524605
-0.7026369 0.6902469 -0.1728021
-0.7030735 0.6844822 -0.1927998
-0.7032058 0.6785035 -0.2124492
-0.7030452 0.6723249 -0.2317469
-0.702603 0.6659605 -0.2506903
-0.7018905 0.6594236 -0.2692772
-0.7009189 0.6527272 -0.2875065
-0.6996991 0.6458837 -0.3053775
-0.6982422 0.6389052 -0.32289
-0.696559 0.6318031 -0.3400446
-0.6946601 0.6245886 -0.3568423
-0.692556 0.6172721 -0.3732845
-0.690257 0.6098638 -0.3893732
-0.6877731 0.6023732 -0.4051106
-0.6851143 0.5948097 -0.4204995
-0.6822902 0.5871818 -0.4355428
-0.6793103 0.579498 -0.450244
-0.6761837 0.571766 -0.4646066
-0.6729195 0.5639933 -0.4786344
-0.6695264 0.556187 -0.4923316
-0.6660129 0.5483537 -0.5057025
-0.6623874 0.5404996 -0.5187515
-0.6586578 0.5326307 -0.5314832
-0.654832 0.5247525 -0.5439024
-0.6509176 0.5168701 -0.556014
-0.6469219 0.5089885 -0.5678228
-0.642852 0.5011122 -0.579334
-0.6387148 0.4932454 -0.5905527
-0.634517 0.485392 -0.6014839
-0.630265 0.4775557 -0.6121329
-0.625965 0.4697399 -0.6225048
-0.6216231 0.4619477 -0.632605
-0.6172451 0.454182 -0.6424385
-0.6128365 0.4464453 -0.6520107
-0.6084029 0.4387402 -0.6613267
-0.6039493 0.4310689 -0.6703916
-0.5994809 0.4234332 -0.6792105
-0.5950025 0.4158351 -0.6877886
-0.5905187 0.4082761 -0.6961309
-0.5860341 0.4007577 -0.7042424
-0.5815529 0.3932812 -0.7121279
-0.5770793 0.3858476 -0.7197924
-0.5726174 0.378458 -0.7272406
-0.568171 0.3711131 -0.7344772
-0.5637438 0.3638137 -0.7415069
-0.5593393 0.3565604 -0.7483343
-0.554961 0.3493535 -0.7549638
-0.5506122 0.3421935 -0.7613999
-0.546296 0.3350806 -0.7676468
-0.5420155 0.3280149 -0.7737089
-0.5377735 0.3209964 -0.7795902
-0.533573 0.3140252 -0.7852949
-0.5294165 0.307101 -0.7908269
-0.5253066 0.3002238 -0.7961901
-0.5212459 0.2933932 -0.8013883
-0.5172367 0.2866088 -0.8064252
-0.5132812 0.2798704 -0.8113045
-0.5093817 0.2731774 -0.8160297
-0.5055402 0.2665293 -0.8206042
-0.5017588 0.2599256 -0.8250314
-0.4980394 0.2533656 -0.8293145
-0.4943838 0.2468488 -0.8334569
-0.4907938 0.2403743 -0.8374614
-0.4872711 0.2339416 -0.8413312
-0.4838173 0.2275497 -0.8450692
-0.480434 0.221198 -0.8486782
-0.4771226 0.2148856 -0.8521609
-0.4738846 0.2086116 -0.85552
-0.4707214 0.2023752 -0.8587582
-0.4676342 0.1961754 -0.8618779
-0.4646242 0.1900115 -0.8648815
-0.4616928 0.1838823 -0.8677713
-0.4588409 0.177787 -0.8705497
-0.4560697 0.1717245 -0.8732188
-0.4533803 0.165694 -0.8757807
-0.4507736 0.1596944 -0.8782374
-0.4482505 0.1537247 -0.8805908
-0.4458119 0.1477839 -0.8828429
-0.4434588 0.141871 -0.8849954
-0.4411919 0.1359848 -0.8870501
-0.4390119 0.1301245 -0.8890085
-0.4369197 0.1242889 -0.8908723
-0.4349158 0.1184769 -0.892643
-0.433001 0.1126876 -0.8943219
-0.4311759 0.1069198 -0.8959104
-0.4294409 0.1011726 -0.8974099
-0.4277968 0.09544472 -0.8988216
-0.426244 0.08973523 -0.9001465
-0.424783 0.08404302 -0.9013857
-0.4234141 0.07836701 -0.9025403
-0.422138 0.07270613 -0.9036113
-0.4209548 0.0670593 -0.9045994
-0.419865 0.06142544 -0.9055055
-0.4188689 0.05580347 -0.9063304
-0.4179668 0.05019231 -0.9070747
-0.417159 0.04459088 -0.907739
-0.4164456 0.0389981 -0.9083238
-0.415827 0.03341289 -0.9088297
-0.4153032 0.02783416 -0.9092571
-0.4148745 0.02226084 -0.9096063
-0.4145409 0.01669185 -0.9098776
-0.4143025 0.0111261 -0.9100712
-0.4141595 0.005562507 -0.9101873
-0.4141118 -5.459522e-13 -0.910226
-0.4141595 -0.005562507 -0.9101873
-0.4143025 -0.0111261 -0.9100712
-0.4145409 -0.01669185 -0.9098776
-0.4148745 -0.02226084 -0.9096063
-0.4153032 -0.02783416 -0.9092571
-0.415827 -0.03341289 -0.9088297
-0.4164456 -0.0389981 -0.9083238
-0.417159 -0.04459088 -0.907739
-0.4179668 -0.05019231 -0.9070747
-0.4188689 -0.05580347 -0.9063304
-0.419865 -0.06142544 -0.9055055
-0.4209548 -0.0670593 -0.9045994
-0.422138 -0.07270613 -0.9036113
-0.4234141 -0.07836701 -0.9025403
-0.424783 -0.08404302 -0.9013857
-0.426244 -0.08973523 -0.9001465
-0.4277968 -0.09544472 -0.8988216
-0.4294409 -0.1011726 -0.8974099
-0.4311759 -0.1069198 -0.8959104
-0.433001 -0.1126876 -0.8943219
-0.4349158 -0.1184769 -0.892643
-0.4369197 -0.1242889 -0.8908723
-0.4390119 -0.1301245 -0.8890085
-0.4411919 -0.1359848 -0.8870501
-0.4434588 -0.141871 -0.8849954
-0.4458119 -0.1477839 -0.8828429
-0.4482505 -0.1537247 -0.8805908
-0.4507736 -0.1596944 -0.8782374
-0.4533803 -0.165694 -0.8757807
-0.4560697 -0.1717245 -0.8732188
-0.4588409 -0.177787 -0.8705497
-0.4616928 -0.1838823 -0.8677713
-0.4646242 -0.1900115 -0.8648815
-0.4676342 -0.1961754 -0.8618779
-0.4707214 -0.2023752 -0.8587582
-0.4738846 -0.2086116 -0.85552
-0.4771226 -0.2148856 -0.8521609
-0.480434 -0.221198 -0.8486782
-0.4838173 -0.2275497 -0.8450692
-0.4872711 -0.2339416 -0.8413312
-0.4907938 -0.2403743 -0.8374614
-0.4943838 -0.2468488 -0.8334569
-0.4980394 -0.2533656 -0.8293145
-0.5017588 -0.2599256 -0.8250314
-0.5055402 -0.2665293 -0.8206042
-0.5093817 -0.2731774 -0.8160297
-0.5132812 -0.2798704 -0.8113045
-0.5172367 -0.2866088 -0.8064252
-0.5212459 -0.2933932 -0.8013883
-0.5253066 -0.3002238 -0.7961901
-0.5294165 -0.307101 -0.7908269
-0.533573 -0.3140252 -0.7852949