# vtk DataFile Version 2.0
Written badly by Kevin Korner
ASCII
DATASET POLYDATA
POINTS 350 FLOAT
0 0 0
0.00286533 0 0
0.005730528 2.564246e-05 9.795013e-06
0.008595331 7.695584e-05 2.925253e-05
0.01145948 0.0001539653 5.823961e-05
0.01432271 0.0002566928 9.662287e-05
0.01718476 0.000385157 0.0001442685
0.02004537 0.0005393733 0.0002010425
0.02290429 0.0007193541 0.0002668102
0.02576125 0.0009251083 0.000341437
0.02861599 0.001156642 0.0004247876
0.03146826 0.001413958 0.0005167267
0.0343178 0.001697055 0.0006171188
0.03716436 0.002005931 0.0007258278
0.04000768 0.002340579 0.000842718
0.04284751 0.002700988 0.0009676529
0.04568358 0.003087147 0.001100496
0.04851567 0.00349904 0.001241112
0.0513435 0.003936647 0.001389362
0.05416683 0.004399948 0.001545111
0.05698542 0.004888918 0.001708223
0.059799 0.005403528 0.001878559
0.06260735 0.005943749 0.002055984
0.0654102 0.006509546 0.00224036
0.06820732 0.007100885 0.002431551
0.07099846 0.007717724 0.00262942
0.07378338 0.008360024 0.002833831
0.07656184 0.009027738 0.003044646
0.0793336 0.009720819 0.00326173
0.08209841 0.01043922 0.003484946
0.08485604 0.01118288 0.003714158
0.08760626 0.01195175 0.003949229
0.09034882 0.01274577 0.004190025
0.0930835 0.01356488 0.00443641
0.09581006 0.01440901 0.004688248
0.09852827 0.0152781 0.004945404
0.1012379 0.01617208 0.005207743
0.1039387 0.01709088 0.005475131
0.1066305 0.01803442 0.005747434
0.109313 0.01900263 0.006024517
0.1119861 0.01999543 0.006306247
0.1146494 0.02101273 0.006592491
0.1173028 0.02205446 0.006883116
0.119946 0.02312052 0.00717799
0.1225789 0.02421083 0.00747698
0.1252011 0.02532529 0.007779955
0.1278126 0.02646382 0.008086783
0.130413 0.02762632 0.008397335
0.1330022 0.02881268 0.008711479
0.13558 0.03002281 0.009029086
0.1381461 0.03125661 0.009350027
0.1407003 0.03251397 0.009674172
0.1432425 0.03379478 0.01000139
0.1457723 0.03509893 0.01033157
0.1482897 0.03642632 0.01066456
0.1507944 0.03777683 0.01100025
0.1532863 0.03915034 0.01133851
0.155765 0.04054674 0.01167921
0.1582304 0.0419659 0.01202223
0.1606824 0.04340771 0.01236745
0.1631207 0.04487204 0.01271474
0.1655451 0.04635876 0.01306398
0.1679555 0.04786776 0.01341505
0.1703516 0.04939888 0.01376782
0.1727332 0.05095202 0.01412218
0.1751003 0.05252702 0.01447801
0.1774525 0.05412376 0.01483518
0.1797897 0.05574211 0.01519357
0.1821118 0.05738191 0.01555308
0.1844184 0.05904303 0.01591358
0.1867096 0.06072533 0.01627496
0.188985 0.06242866 0.01663709
0.1912446 0.06415288 0.01699987
0.1934881 0.06589784 0.01736319
0.1957153 0.06766339 0.01772692
0.1979262 0.06944937 0.01809096
0.2001205 0.07125564 0.0184552
0.202298 0.07308204 0.01881952
0.2044586 0.07492842 0.01918382
0.2066022 0.07679461 0.01954798
0.2087285 0.07868046 0.0199119
0.2108374 0.08058581 0.02027547
0.2129288 0.08251049 0.02063858
0.2150025 0.08445435 0.02100114
0.2170583 0.08641721 0.02136303
0.219096 0.08839891 0.02172415
0.2211157 0.09039928 0.02208439
0.223117 0.09241816 0.02244367
0.2250998 0.09445536 0.02280187
0.227064 0.09651073 0.0231589
0.2290094 0.09858408 0.02351465
0.230936 0.1006752 0.02386903
0.2328435 0.102784 0.02422195
0.2347318 0.1049103 0.0245733
0.2366008 0.1070538 0.02492299
0.2384503 0.1092144 0.02527093
0.2402802 0.111392 0.02561702
0.2420905 0.1135862 0.02596117
0.2438808 0.1157971 0.0263033
0.2456511 0.1180243 0.0266433
0.2474014 0.1202676 0.0269811
0.2491314 0.122527 0.0273166
0.250841 0.1248022 0.02764972
0.2525301 0.1270929 0.02798037
0.2541986 0.1293991 0.02830846
0.2558464 0.1317206 0.02863392
0.2574733 0.134057 0.02895665
0.2590792 0.1364083 0.02927659
0.2606641 0.1387743 0.02959364
0.2622278 0.1411547 0.02990773
0.2637701 0.1435494 0.03021878
0.2652911 0.1459582 0.0305267
0.2667905 0.1483808 0.03083144
0.2682683 0.150817 0.0311329
0.2697243 0.1532667 0.03143103
0.2711585 0.1557297 0.03172573
0.2725708 0.1582058 0.03201695
0.2739611 0.1606947 0.0323046
0.2753292 0.1631962 0.03258863
0.276675 0.1657102 0.03286896
0.2779986 0.1682364 0.03314552
0.2792997 0.1707747 0.03341825
0.2805783 0.1733248 0.03368709
0.2818343 0.1758865 0.03395196
0.2830677 0.1784596 0.03421281
0.2842782 0.181044 0.03446958
0.2854659 0.1836393 0.0347222
0.2866307 0.1862454 0.03497061
0.2877724 0.188862 0.03521476
0.2888911 0.191489 0.03545459
0.2899866 0.1941262 0.03569004
0.2910588 0.1967733 0.03592107
0.2921077 0.1994301 0.0361476
0.2931332 0.2020964 0.0363696
0.2941353 0.204772 0.03658701
0.2951138 0.2074566 0.03679978
0.2960687 0.2101501 0.03700787
0.2969999 0.2128523 0.03721122
0.2979074 0.2155628 0.03740978
0.2987911 0.2182816 0.03760352
0.299651 0.2210083 0.03779239
0.3004869 0.2237428 0.03797634
0.3012989 0.2264849 0.03815534
0.3020869 0.2292342 0.03832934
0.3028507 0.2319907 0.03849831
0.3035905 0.234754 0.0386622
0.304306 0.237524 0.03882098
0.3049974 0.2403004 0.03897462
0.3056644 0.2430831 0.03912307
0.3063072 0.2458717 0.03926631
0.3069255 0.2486661 0.0394043
0.3075195 0.2514661 0.03953701
0.308089 0.2542713 0.03966442
0.308634 0.2570817 0.03978649
0.3091545 0.2598969 0.0399032
0.3096505 0.2627168 0.04001452
0.3101219 0.2655411 0.04012043
0.3105686 0.2683696 0.0402209
0.3109907 0.2712021 0.04031592
0.3113881 0.2740383 0.04040545
0.3117608 0.2768781 0.04048948
0.3121087 0.2797211 0.040568
0.3124319 0.2825672 0.04064098
0.3127304 0.2854162 0.0407084
0.313004 0.2882677 0.04077027
0.3132528 0.2911217 0.04082655
0.3134768 0.2939778 0.04087723
0.3136759 0.2968358 0.04092232
0.3138502 0.2996956 0.04096179
0.3139996 0.3025568 0.04099563
0.3141241 0.3054193 0.04102385
0.3142237 0.3082828 0.04104643
0.3142984 0.3111471 0.04106337
0.3143482 0.314012 0.04107467
0.3143732 0.3168772 0.04108032
0.3143732 0.3197426 0.04108032
0.3143482 0.3226078 0.04107467
0.3142984 0.3254726 0.04106337
0.3142237 0.3283369 0.04104643
0.3141241 0.3312005 0.04102385
0.3139996 0.3340629 0.04099563
0.3138502 0.3369242 0.04096179
0.3136759 0.3397839 0.04092232
0.3134768 0.342642 0.04087723
0.3132528 0.3454981 0.04082655
0.313004 0.348352 0.04077027
0.3127304 0.3512036 0.0407084
0.3124319 0.3540525 0.04064098
0.3121087 0.3568987 0.040568
0.3117608 0.3597417 0.04048948
0.3113881 0.3625814 0.04040545
0.3109907 0.3654177 0.04031592
0.3105686 0.3682501 0.0402209
0.3101219 0.3710786 0.04012043
0.3096505 0.373903 0.04001452
0.3091545 0.3767228 0.0399032
0.308634 0.3795381 0.03978649
0.308089 0.3823484 0.03966442
0.3075195 0.3851537 0.03953701
0.3069255 0.3879537 0.0394043
0.3063072 0.3907481 0.03926631
0.3056644 0.3935367 0.03912307
0.3049974 0.3963193 0.03897462
0.304306 0.3990958 0.03882098
0.3035905 0.4018658 0.0386622
0.3028507 0.4046291 0.03849831
0.3020869 0.4073856 0.03832934
0.3012989 0.4101349 0.03815534
0.3004869 0.412877 0.03797634
0.299651 0.4156115 0.03779239
0.2987911 0.4183382 0.03760352
0.2979074 0.4210569 0.03740978
0.2969999 0.4237675 0.03721122
0.2960687 0.4264696 0.03700787
0.2951138 0.4291631 0.03679978
0.2941353 0.4318478 0.03658701
0.2931332 0.4345234 0.0363696
0.2921077 0.4371897 0.0361476
0.2910588 0.4398465 0.03592107
0.2899866 0.4424936 0.03569004
0.2888911 0.4451307 0.03545459
0.2877724 0.4477577 0.03521476
0.2866307 0.4503744 0.03497061
0.2854659 0.4529805 0.0347222
0.2842782 0.4555758 0.03446958
0.2830677 0.4581601 0.03421281
0.2818343 0.4607333 0.03395196
0.2805783 0.463295 0.03368709
0.2792997 0.4658451 0.03341825
0.2779986 0.4683833 0.03314552
0.276675 0.4709096 0.03286896
0.2753292 0.4734236 0.03258863
0.2739611 0.4759251 0.0323046
0.2725708 0.478414 0.03201695
0.2711585 0.4808901 0.03172573
0.2697243 0.483353 0.03143103
0.2682683 0.4858028 0.0311329
0.2667905 0.488239 0.03083144
0.2652911 0.4906616 0.0305267
0.2637701 0.4930704 0.03021878
0.2622278 0.495465 0.02990773
0.2606641 0.4978455 0.02959364
0.2590792 0.5002114 0.02927659
0.2574733 0.5025627 0.02895665
0.2558464 0.5048992 0.02863392
0.2541986 0.5072206 0.02830846
0.2525301 0.5095268 0.02798037
0.250841 0.5118176 0.02764972
0.2491314 0.5140928 0.0273166
0.2474014 0.5163521 0.0269811
0.2456511 0.5185955 0.0266433
0.2438808 0.5208227 0.0263033
0.2420905 0.5230335 0.02596117
0.2402802 0.5252278 0.02561702
0.2384503 0.5274053 0.02527093
0.2366008 0.529566 0.02492299
0.2347318 0.5317095 0.0245733
0.2328435 0.5338357 0.02422195
0.230936 0.5359445 0.02386903
0.2290094 0.5380357 0.02351465
0.227064 0.540109 0.0231589
0.2250998 0.5421644 0.02280187
0.223117 0.5442016 0.02244367
0.2211157 0.5462205 0.02208439
0.219096 0.5482209 0.02172415
0.2170583 0.5502026 0.02136303
0.2150025 0.5521654 0.02100114
0.2129288 0.5541093 0.02063858
0.2108374 0.556034 0.02027547
0.2087285 0.5579393 0.0199119
0.2066022 0.5598252 0.01954798
0.2044586 0.5616914 0.01918382
0.202298 0.5635377 0.01881952
0.2001205 0.5653641 0.0184552
0.1979262 0.5671704 0.01809096
0.1957153 0.5689564 0.01772692
0.1934881 0.5707219 0.01736319
0.1912446 0.5724669 0.01699987
0.188985 0.5741911 0.01663709
0.1867096 0.5758944 0.01627496
0.1844184 0.5775767 0.01591358
0.1821118 0.5792379 0.01555308
0.1797897 0.5808777 0.01519357
0.1774525 0.582496 0.01483518
0.1751003 0.5840928 0.01447801
0.1727332 0.5856678 0.01412218
0.1703516 0.5872209 0.01376782
0.1679555 0.588752 0.01341505
0.1655451 0.590261 0.01306398
0.1631207 0.5917477 0.01271474
0.1606824 0.5932121 0.01236745
0.1582304 0.5946539 0.01202223
0.155765 0.596073 0.01167921
0.1532863 0.5974694 0.01133851
0.1507944 0.5988429 0.01100025
0.1482897 0.6001934 0.01066456
0.1457723 0.6015208 0.01033157
0.1432425 0.602825 0.01000139
0.1407003 0.6041058 0.009674172
0.1381461 0.6053632 0.009350027
0.13558 0.606597 0.009029086
0.1330022 0.6078071 0.008711479
0.130413 0.6089935 0.008397335
0.1278126 0.610156 0.008086783
0.1252011 0.6112945 0.007779955
0.1225789 0.6124089 0.00747698
0.119946 0.6134993 0.00717799
0.1173028 0.6145653 0.006883116
0.1146494 0.615607 0.006592491
0.1119861 0.6166243 0.006306247
0.109313 0.6176171 0.006024517
0.1066305 0.6185854 0.005747434
0.1039387 0.6195289 0.005475131
0.1012379 0.6204477 0.005207743
0.09852827 0.6213417 0.004945404
0.09581006 0.6222108 0.004688248
0.0930835 0.6230549 0.00443641
0.09034882 0.623874 0.004190025
0.08760626 0.624668 0.003949229
0.08485604 0.6254369 0.003714158
0.08209841 0.6261806 0.003484946
0.0793336 0.626899 0.00326173
0.07656184 0.627592 0.003044646
0.07378338 0.6282597 0.002833831
0.07099846 0.628902 0.00262942
0.06820732 0.6295189 0.002431551
0.0654102 0.6301102 0.00224036
0.06260735 0.630676 0.002055984
0.059799 0.6312162 0.001878559
0.05698542 0.6317309 0.001708223
0.05416683 0.6322198 0.001545111
0.0513435 0.6326831 0.001389362
0.04851567 0.6331207 0.001241112
0.04568358 0.6335326 0.001100496
0.04284751 0.6339188 0.0009676529
0.04000768 0.6342792 0.000842718
0.03716436 0.6346138 0.0007258278
0.0343178 0.6349227 0.0006171188
0.03146826 0.6352058 0.0005167267
0.02861599 0.6354631 0.0004247876
0.02576125 0.6356947 0.000341437
0.02290429 0.6359004 0.0002668102
0.02004537 0.6360804 0.0002010425
0.01718476 0.6362346 0.0001442685
0.01432271 0.6363631 9.662287e-05
0.01145948 0.6364658 5.823961e-05
0.008595331 0.6365428 2.925253e-05
0.005730528 0.6365941 9.795013e-06
0.00286533 0.6366198 0
0 0.6366198 0

LINES 349 1047
2 0 1
2 1 2
2 2 3
2 3 4
2 4 5
2 5 6
2 6 7
2 7 8
2 8 9
2 9 10
2 10 11
2 11 12
2 12 13
2 13 14
2 14 15
2 15 16
2 16 17
2 17 18
2 18 19
2 19 20
2 20 21
2 21 22
2 22 23
2 23 24
2 24 25
2 25 26
2 26 27
2 27 28
2 28 29
2 29 30
2 30 31
2 31 32
2 32 33
2 33 34
2 34 35
2 35 36
2 36 37
2 37 38
2 38 39
2 39 40
2 40 41
2 41 42
2 42 43
2 43 44
2 44 45
2 45 46
2 46 47
2 47 48
2 48 49
2 49 50
2 50 51
2 51 52
2 52 53
2 53 54
2 54 55
2 55 56
2 56 57
2 57 58
2 58 59
2 59 60
2 60 61
2 61 62
2 62 63
2 63 64
2 64 65
2 65 66
2 66 67
2 67 68
2 68 69
2 69 70
2 70 71
2 71 72
2 72 73
2 73 74
2 74 75
2 75 76
2 76 77
2 77 78
2 78 79
2 79 80
2 80 81
2 81 82
2 82 83
2 83 84
2 84 85
2 85 86
2 86 87
2 87 88
2 88 89
2 89 90
2 90 91
2 91 92
2 92 93
2 93 94
2 94 95
2 95 96
2 96 97
2 97 98
2 98 99
2 99 100
2 100 101
2 101 102
2 102 103
2 103 104
2 104 105
2 105 106
2 106 107
2 107 108
2 108 109
2 109 110
2 110 111
2 111 112
2 112 113
2 113 114
2 114 115
2 115 116
2 116 117
2 117 118
2 118 119
2 119 120
2 120 121
2 121 122
2 122 123
2 123 124
2 124 125
2 125 126
2 126 127
2 127 128
2 128 129
2 129 130
2 130 131
2 131 132
2 132 133
2 133 134
2 134 135
2 135 136
2 136 137
2 137 138
2 138 139
2 139 140
2 140 141
2 141 142
2 142 143
2 143 144
2 144 145
2 145 146
2 146 147
2 147 148
2 148 149
2 149 150
2 150 151
2 151 152
2 152 153
2 153 154
2 154 155
2 155 156
2 156 157
2 157 158
2 158 159
2 159 160
2 160 161
2 161 162
2 162 163
2 163 164
2 164 165
2 165 166
2 166 167
2 167 168
2 168 169
2 169 170
2 170 171
2 171 172
2 172 173
2 173 174
2 174 175
2 175 176
2 176 177
2 177 178
2 178 179
2 179 180
2 180 181
2 181 182
2 182 183
2 183 184
2 184 185
2 185 186
2 186 187
2 187 188
2 188 189
2 189 190
2 190 191
2 191 192
2 192 193
2 193 194
2 194 195
2 195 196
2 196 197
2 197 198
2 198 199
2 199 200
2 200 201
2 201 202
2 202 203
2 203 204
2 204 205
2 205 206
2 206 207
2 207 208
2 208 209
2 209 210
2 210 211
2 211 212
2 212 213
2 213 214
2 214 215
2 215 216
2 216 217
2 217 218
2 218 219
2 219 220
2 220 221
2 221 222
2 222 223
2 223 224
2 224 225
2 225 226
2 226 227
2 227 228
2 228 229
2 229 230
2 230 231
2 231 232
2 232 233
2 233 234
2 234 235
2 235 236
2 236 237
2 237 238
2 238 239
2 239 240
2 240 241
2 241 242
2 242 243
2 243 244
2 244 245
2 245 246
2 246 247
2 247 248
2 248 249
2 249 250
2 250 251
2 251 252
2 252 253
2 253 254
2 254 255
2 255 256
2 256 257
2 257 258
2 258 259
2 259 260
2 260 261
2 261 262
2 262 263
2 263 264
2 264 265
2 265 266
2 266 267
2 267 268
2 268 269
2 269 270
2 270 271
2 271 272
2 272 273
2 273 274
2 274 275
2 275 276
2 276 277
2 277 278
2 278 279
2 279 280
2 280 281
2 281 282
2 282 283
2 283 284
2 284 285
2 285 286
2 286 287
2 287 288
2 288 289
2 289 290
2 290 291
2 291 292
2 292 293
2 293 294
2 294 295
2 295 296
2 296 297
2 297 298
2 298 299
2 299 300
2 300 301
2 301 302
2 302 303
2 303 304
2 304 305
2 305 306
2 306 307
2 307 308
2 308 309
2 309 310
2 310 311
2 311 312
2 312 313
2 313 314
2 314 315
2 315 316
2 316 317
2 317 318
2 318 319
2 319 320
2 320 321
2 321 322
2 322 323
2 323 324
2 324 325
2 325 326
2 326 327
2 327 328
2 328 329
2 329 330
2 330 331
2 331 332
2 332 333
2 333 334
2 334 335
2 335 336
2 336 337
2 337 338
2 338 339
2 339 340
2 340 341
2 341 342
2 342 343
2 343 344
2 344 345
2 345 346
2 346 347
2 347 348
2 348 349


POINT_DATA 350
SCALARS a FLOAT 1
LOOKUP_TABLE default
0.0005894628
0.0005894628
0.0005894628
0.0005894628
0.0005894628
0.0005894628
0.0005894628
0.0005894628
0.0005894628
0.0005894628
0.0005894628
0.0005894628
0.0005894628
0.0005894628
0.0005894628
0.0005894628
0.0005894628
0.0005894628
0.0005894628
0.0005894628
0.0005894628
0.0005894628
0.0005894628
0.0005894628
0.0005894628
0.0005894628
0.0005894628
0.0005894628
0.0005894628
0.0005894628
0.0005894628
0.0005894628
0.0005894628
0.0005894628
0.0005894628
0.0005894628
0.0005894628
0.0005894628
0.0005894628
0.0005894628
0.0005894628
0.0005894628
0.0005894628
0.0005894628
0.0005894628
0.0005894628
0.0005894628
0.0005894628
0.0005894628
0.0005894628
0.0005894628
0.0005894628
0.0005894628
0.0005894628
0.0005894628
0.0005894628
0.0005894628
0.0005894628
0.0005894628
0.0005894628
0.0005894628
0.0005894628
0.0005894628
0.0005894628
0.0005894628
0.0005894628
0.0005894628
0.0005894628
0.0005894628
0.0005894628
0.0005894628
0.0005894628
0.0005894628
0.0005894628
0.0005894628
0.0005894628
0.0005894628
0.0005894628
0.0005894628
0.0005894628
0.0005894628
0.0005894628
0.0005894628
0.0005894628
0.0005894628
0.0005894628
0.0005894628
0.0005894628
0.0005894628
0.0005894628
0.0005894628
0.0005894628
0.0005894628
0.0005894628
0.0005894628
0.0005894628
0.0005894628
0.0005894628
0.0005894628
0.0005894628
0.0005894628
0.0005894628
0.0005894628
0.0005894628
0.0005894628
0.0005894628
0.0005894628
0.0005894628
0.0005894628
0.0005894628
0.0005894628
0.0005894628
0.0005894628
0.0005894628
0.0005894628
0.0005894628
0.0005894628
0.0005894628
0.0005894628
0.0005894628
0.0005894628
0.0005894628
0.0005894628
0.0005894628
0.0005894628
0.0005894628
0.0005894628
0.0005894628
0.0005894628
0.0005894628
0.0005894628
0.0005894628
0.0005894628
0.0005894628
0.0005894628
0.0005894628
0.0005894628
0.0005894628
0.0005894628
0.0005894628
0.0005894628
0.0005894628
0.0005894628
0.0005894628
0.0005894628
0.0005894628
0.0005894628
0.0005894628
0.0005894628
0.0005894628
0.0005894628
0.0005894628
0.0005894628
0.0005894628
0.0005894628
0.0005894628
0.0005894628
0.0005894628
0.0005894628
0.0005894628
0.0005894628
0.0005894628
0.0005894628
0.0005894628
0.0005894628
0.0005894628
0.0005894628
0.0005894628
0.0005894628
0.0005894628
0.0005894628
0.0005894628
0.0005894628
0.0005894628
0.0005894628
0.0005894628
0.0005894628
0.0005894628
0.0005894628
0.0005894628
0.0005894628
0.0005894628
0.0005894628
0.0005894628
0.0005894628
0.0005894628
0.0005894628
0.0005894628
0.0005894628
0.0005894628
0.0005894628
0.0005894628
0.0005894628
0.0005894628
0.0005894628
0.0005894628
0.0005894628
0.0005894628
0.0005894628
0.0005894628
0.0005894628
0.0005894628
0.0005894628
0.0005894628
0.0005894628
0.0005894628
0.0005894628
0.0005894628
0.0005894628
0.0005894628
0.0005894628
0.0005894628
0.0005894628
0.0005894628
0.0005894628
0.0005894628
0.0005894628
0.0005894628
0.0005894628
0.0005894628
0.0005894628
0.0005894628
0.0005894628
0.0005894628
0.0005894628
0.0005894628
0.0005894628
0.0005894628
0.0005894628
0.0005894628
0.0005894628
0.0005894628
0.0005894628
0.0005894628
0.0005894628
0.0005894628
0.0005894628
0.0005894628
0.0005894628
0.0005894628
0.0005894628
0.0005894628
0.0005894628
0.0005894628
0.0005894628
0.0005894628
0.0005894628
0.0005894628
0.0005894628
0.0005894628
0.0005894628
0.0005894628
0.0005894628
0.0005894628
0.0005894628
0.0005894628
0.0005894628
0.0005894628
0.0005894628
0.0005894628
0.0005894628
0.0005894628
0.0005894628
0.0005894628
0.0005894628
0.0005894628
0.0005894628
0.0005894628
0.0005894628
0.0005894628
0.0005894628
0.0005894628
0.0005894628
0.0005894628
0.0005894628
0.0005894628
0.0005894628
0.0005894628
0.0005894628
0.0005894628
0.0005894628
0.0005894628
0.0005894628
0.0005894628
0.0005894628
0.0005894628
0.0005894628
0.0005894628
0.0005894628
0.0005894628
0.0005894628
0.0005894628
0.0005894628
0.0005894628
0.0005894628
0.0005894628
0.0005894628
0.0005894628
0.0005894628
0.0005894628
0.0005894628
0.0005894628
0.0005894628
0.0005894628
0.0005894628
0.0005894628
0.0005894628
0.0005894628
0.0005894628
0.0005894628
0.0005894628
0.0005894628
0.0005894628
0.0005894628
0.0005894628
0.0005894628
0.0005894628
0.0005894628
0.0005894628
0.0005894628
0.0005894628
0.0005894628
0.0005894628
0.0005894628
0.0005894628
0.0005894628
0.0005894628
0.0005894628
0.0005894628
0.0005894628
0.0005894628
0.0005894628
0.0005894628
0.0005894628
0.0005894628
0.0005894628
0.0005894628
0.0005894628
0.0005894628
0.0005894628
0.0005894628
0.0005894628
0.0005894628
0.0005894628
0.0005894628
0.0005894628
0.0005894628
0.0005894628
0.0005894628
0.0005894628


SCALARS b FLOAT 1
LOOKUP_TABLE default
0.02357851
0.02357851
0.02357851
0.02357851
0.02357851
0.02357851
0.02357851
0.02357851
0.02357851
0.02357851
0.02357851
0.02357851
0.02357851
0.02357851
0.02357851
0.02357851
0.02357851
0.02357851
0.02357851
0.02357851
0.02357851
0.02357851
0.02357851
0.02357851
0.02357851
0.02357851
0.02357851
0.02357851
0.02357851
0.02357851
0.02357851
0.02357851
0.02357851
0.02357851
0.02357851
0.02357851
0.02357851
0.02357851
0.02357851
0.02357851
0.02357851
0.02357851
0.02357851
0.02357851
0.02357851
0.02357851
0.02357851
0.02357851
0.02357851
0.02357851
0.02357851
0.02357851
0.02357851
0.02357851
0.02357851
0.02357851
0.02357851
0.02357851
0.02357851
0.02357851
0.02357851
0.02357851
0.02357851
0.02357851
0.02357851
0.02357851
0.02357851
0.02357851
0.02357851
0.02357851
0.02357851
0.02357851
0.02357851
0.02357851
0.02357851
0.02357851
0.02357851
0.02357851
0.02357851
0.02357851
0.02357851
0.02357851
0.02357851
0.02357851
0.02357851
0.02357851
0.02357851
0.02357851
0.02357851
0.02357851
0.02357851
0.02357851
0.02357851
0.02357851
0.02357851
0.02357851
0.02357851
0.02357851
0.02357851
0.02357851
0.02357851
0.02357851
0.02357851
0.02357851
0.02357851
0.02357851
0.02357851
0.02357851
0.02357851
0.02357851
0.02357851
0.02357851
0.02357851
0.02357851
0.02357851
0.02357851
0.02357851
0.02357851
0.02357851
0.02357851
0.02357851
0.02357851
0.02357851
0.02357851
0.02357851
0.02357851
0.02357851
0.02357851
0.02357851
0.02357851
0.02357851
0.02357851
0.02357851
0.02357851
0.02357851
0.02357851
0.02357851
0.02357851
0.02357851
0.02357851
0.02357851
0.02357851
0.02357851
0.02357851
0.02357851
0.02357851
0.02357851
0.02357851
0.02357851
0.02357851
0.02357851
0.02357851
0.02357851
0.02357851
0.02357851
0.02357851
0.02357851
0.02357851
0.02357851
0.02357851
0.02357851
0.02357851
0.02357851
0.02357851
0.02357851
0.02357851
0.02357851
0.02357851
0.02357851
0.02357851
0.02357851
0.02357851
0.02357851
0.02357851
0.02357851
0.02357851
0.02357851
0.02357851
0.02357851
0.02357851
0.02357851
0.02357851
0.02357851
0.02357851
0.02357851
0.02357851
0.02357851
0.02357851
0.02357851
0.02357851
0.02357851
0.02357851
0.02357851
0.02357851
0.02357851
0.02357851
0.02357851
0.02357851
0.02357851
0.02357851
0.02357851
0.02357851
0.02357851
0.02357851
0.02357851
0.02357851
0.02357851
0.02357851
0.02357851
0.02357851
0.02357851
0.02357851
0.02357851
0.02357851
0.02357851
0.02357851
0.02357851
0.02357851
0.02357851
0.02357851
0.02357851
0.02357851
0.02357851
0.02357851
0.02357851
0.02357851
0.02357851
0.02357851
0.02357851
0.02357851
0.02357851
0.02357851
0.02357851
0.02357851
0.02357851
0.02357851
0.02357851
0.02357851
0.02357851
0.02357851
0.02357851
0.02357851
0.02357851
0.02357851
0.02357851
0.02357851
0.02357851
0.02357851
0.02357851
0.02357851
0.02357851
0.02357851
0.02357851
0.02357851
0.02357851
0.02357851
0.02357851
0.02357851
0.02357851
0.02357851
0.02357851
0.02357851
0.02357851
0.02357851
0.02357851
0.02357851
0.02357851
0.02357851
0.02357851
0.02357851
0.02357851
0.02357851
0.02357851
0.02357851
0.02357851
0.02357851
0.02357851
0.02357851
0.02357851
0.02357851
0.02357851
0.02357851
0.02357851
0.02357851
0.02357851
0.02357851
0.02357851
0.02357851
0.02357851
0.02357851
0.02357851
0.02357851
0.02357851
0.02357851
0.02357851
0.02357851
0.02357851
0.02357851
0.02357851
0.02357851
0.02357851
0.02357851
0.02357851
0.02357851
0.02357851
0.02357851
0.02357851
0.02357851
0.02357851
0.02357851
0.02357851
0.02357851
0.02357851
0.02357851
0.02357851
0.02357851
0.02357851
0.02357851
0.02357851
0.02357851
0.02357851
0.02357851
0.02357851
0.02357851
0.02357851
0.02357851
0.02357851
0.02357851
0.02357851
0.02357851
0.02357851
0.02357851
0.02357851
0.02357851
0.02357851
0.02357851
0.02357851
0.02357851
0.02357851
0.02357851
0.02357851
0.02357851
0.02357851
0.02357851
0.02357851
0.02357851
0.02357851
0.02357851
0.02357851
0.02357851


VECTORS d1 FLOAT
0 0.9332046 0.3593454
-0.009579872 0.9349083 0.3547602
-0.01915242 0.9364967 0.3501531
-0.02871651 0.9379701 0.3455249
-0.03827105 0.9393288 0.3408764
-0.04781494 0.940573 0.3362084
-0.05734708 0.941703 0.3315218
-0.0668664 0.9427191 0.3268173
-0.07637182 0.9436216 0.3220957
-0.08586231 0.9444108 0.3173578
-0.0953368 0.945087 0.3126044
-0.1047943 0.9456505 0.3078364
-0.1142337 0.9461018 0.3030544
-0.123654 0.9464413 0.2982593
-0.1330543 0.9466692 0.2934519
-0.1424336 0.946786 0.288633
-0.1517908 0.9467921 0.2838033
-0.161125 0.946688 0.2789636
-0.1704352 0.946474 0.2741146
-0.1797206 0.9461506 0.2692573
-0.1889801 0.9457184 0.2643923
-0.1982129 0.9451777 0.2595203
-0.207418 0.944529 0.2546422
-0.2165945 0.9437729 0.2497588
-0.2257416 0.9429099 0.2448707
-0.2348584 0.9419404 0.2399787
-0.243944 0.940865 0.2350836
-0.2529976 0.9396843 0.2301861
-0.2620183 0.9383987 0.225287
-0.2710053 0.9370089 0.220387
-0.2799578 0.9355154 0.2154867
-0.2888749 0.9339188 0.210587
-0.297756 0.9322197 0.2056886
-0.3066002 0.9304186 0.2007922
-0.3154067 0.9285163 0.1958984
-0.3241748 0.9265132 0.1910081
-0.3329037 0.92441 0.1861219
-0.3415927 0.9222073 0.1812404
-0.3502412 0.9199058 0.1763645
-0.3588483 0.9175061 0.1714948
-0.3674134 0.9150089 0.1666319
-0.3759357 0.9124148 0.1617766
-0.3844147 0.9097244 0.1569295
-0.3928496 0.9069385 0.1520913
-0.4012398 0.9040577 0.1472626
-0.4095847 0.9010827 0.1424442
-0.4178836 0.8980142 0.1376366
-0.4261359 0.8948528 0.1328406
-0.4343409 0.8915994 0.1280567
-0.4424982 0.8882545 0.1232855
-0.4506071 0.8848189 0.1185279
-0.458667 0.8812932 0.1137842
-0.4666773 0.8776783 0.1090552
-0.4746376 0.8739748 0.1043415
-0.4825472 0.8701835 0.0996437
-0.4904057 0.866305 0.09496237
-0.4982124 0.8623402 0.09029812
-0.505967 0.8582897 0.08565156
-0.5136688 0.8541543 0.08102325
-0.5213175 0.8499347 0.07641378
-0.5289124 0.8456317 0.07182373
-0.5364532 0.841246 0.06725366
-0.5439394 0.8367784 0.06270414
-0.5513705 0.8322296 0.05817571
-0.5587461 0.8276004 0.05366893
-0.5660657 0.8228916 0.04918435
-0.5733289 0.8181038 0.0447225
-0.5805353 0.8132379 0.04028392
-0.5876846 0.8082946 0.03586913
-0.5947762 0.8032748 0.03147865
-0.6018099 0.798179 0.027113
-0.6087851 0.7930082 0.02277268
-0.6157017 0.7877631 0.01845821
-0.6225591 0.7824445 0.01417007
-0.6293571 0.7770531 0.009908762
-0.6360952 0.7715897 0.005674766
-0.6427732 0.7660551 0.001468564
-0.6493908 0.76045 -0.002709372
-0.6559476 0.7547753 -0.006858572
-0.6624432 0.7490317 -0.01097858
-0.6688775 0.7432199 -0.01506893
-0.67525 0.7373408 -0.01912917
-0.6815606 0.7313951 -0.02315887
-0.6878088 0.7253837 -0.02715758
-0.6939946 0.7193072 -0.03112488
-0.7001174 0.7131664 -0.03506032
-0.7061773 0.7069622 -0.0389635
-0.7121737 0.7006952 -0.04283399
-0.7181066 0.6943664 -0.04667139
-0.7239757 0.6879764 -0.05047529
-0.7297807 0.681526 -0.05424529
-0.7355214 0.6750159 -0.05798101
-0.7411976 0.6684471 -0.06168204
-0.7468091 0.6618201 -0.06534802
-0.7523556 0.6551358 -0.06897856
-0.757837 0.648395 -0.07257329
-0.7632531 0.6415985 -0.07613186
-0.7686037 0.6347469 -0.07965389
-0.7738886 0.627841 -0.08313904
-0.7791076 0.6208817 -0.08658695
-0.7842605 0.6138697 -0.08999729
-0.7893472 0.6068057 -0.09336971
-0.7943675 0.5996905 -0.09670389
-0.7993212 0.5925248 -0.09999949
-0.8042083 0.5853095 -0.1032562
-0.8090285 0.5780452 -0.1064737
-0.8137817 0.5707327 -0.1096517
-0.8184678 0.5633728 -0.1127898
-0.8230866 0.5559662 -0.1158878
-0.827638 0.5485137 -0.1189454
-0.8321219 0.541016 -0.1219623
-0.8365382 0.5334738 -0.1249382
-0.8408867 0.525888 -0.1278728
-0.8451673 0.5182591 -0.1307658
-0.84938 0.5105881 -0.133617
-0.8535245 0.5028755 -0.1364262
-0.8576009 0.4951222 -0.1391929
-0.861609 0.4873289 -0.1419171
-0.8655487 0.4794964 -0.1445984
-0.8694199 0.4716252 -0.1472367
-0.8732226 0.4637162 -0.1498316
-0.8769567 0.4557702 -0.1523829
-0.880622 0.4477877 -0.1548904
-0.8842185 0.4397696 -0.1573539
-0.8877462 0.4317166 -0.1597731
-0.8912049 0.4236294 -0.1621479
-0.8945946 0.4155086 -0.164478
-0.8979153 0.4073551 -0.1667632
-0.9011668 0.3991696 -0.1690033
-0.904349 0.3909527 -0.1711982
-0.9074621 0.3827051 -0.1733476
-0.9105058 0.3744276 -0.1754513
-0.9134801 0.3661209 -0.1775091
-0.9163851 0.3577857 -0.179521
-0.9192205 0.3494227 -0.1814866
-0.9219865 0.3410325 -0.1834059
-0.9246829 0.332616 -0.1852787
-0.9273097 0.3241737 -0.1871047
-0.9298668 0.3157065 -0.1888839
-0.9323543 0.3072149 -0.1906162
-0.934772 0.2986996 -0.1923012
-0.93712 0.2901615 -0.193939
-0.9393983 0.2816011 -0.1955294
-0.9416067 0.2730192 -0.1970721
-0.9437452 0.2644164 -0.1985672
-0.9458139 0.2557934 -0.2000145
-0.9478127 0.2471509 -0.2014138
-0.9497415 0.2384897 -0.2027651
-0.9516004 0.2298103 -0.2040682
-0.9533894 0.2211135 -0.2053231
-0.9551083 0.2123999 -0.2065295
-0.9567572 0.2036702 -0.2076875
-0.9583361 0.1949252 -0.2087969
-0.9598449 0.1861654 -0.2098576
-0.9612836 0.1773916 -0.2108696
-0.9626523 0.1686044 -0.2118327
-0.9639509 0.1598045 -0.2127469
-0.9651793 0.1509926 -0.2136122
-0.9663376 0.1421693 -0.2144283
-0.9674258 0.1333354 -0.2151954
-0.9684438 0.1244914 -0.2159132
-0.9693916 0.1156382 -0.2165818
-0.9702693 0.1067762 -0.217201
-0.9710768 0.09790628 -0.217771
-0.9718141 0.08902901 -0.2182915
-0.9724812 0.08014508 -0.2187626
-0.9730781 0.07125516 -0.2191841
-0.9736048 0.06235991 -0.2195562
-0.9740613 0.05346 -0.2198787
-0.9744475 0.0445561 -0.2201517
-0.9747636 0.03564887 -0.220375
-0.9750094 0.02673898 -0.2205488
-0.9751849 0.0178271 -0.2206729
-0.9752903 0.008913881 -0.2207473
-0.9753254 -3.051448e-13 -0.2207722
-0.9752903 -0.008913881 -0.2207473
-0.9751849 -0.0178271 -0.2206729
-0.9750094 -0.02673898 -0.2205488
-0.9747636 -0.03564887 -0.220375
-0.9744475 -0.0445561 -0.2201517
-0.9740613 -0.05346 -0.2198787
-0.9736048 -0.06235991 -0.2195562
-0.9730781 -0.07125516 -0.2191841
-0.9724812 -0.08014508 -0.2187626
-0.9718141 -0.08902901 -0.2182915
-0.9710768 -0.09790628 -0.217771
-0.9702693 -0.1067762 -0.217201
-0.9693916 -0.1156382 -0.2165818
-0.9684438 -0.1244914 -0.2159132
-0.9674258 -0.1333354 -0.2151954
-0.9663376 -0.1421693 -0.2144283
-0.9651793 -0.1509926 -0.2136122
-0.9639509 -0.1598045 -0.2127469
-0.9626523 -0.1686044 -0.2118327
-0.9612836 -0.1773916 -0.2108696
-0.9598449 -0.1861654 -0.2098576
-0.9583361 -0.1949252 -0.2087969
-0.9567572 -0.2036702 -0.2076875
-0.9551083 -0.2123999 -0.2065295
-0.9533894 -0.2211135 -0.2053231
-0.9516004 -0.2298103 -0.2040682
-0.9497415 -0.2384897 -0.2027651
-0.9478127 -0.2471509 -0.2014138
-0.9458139 -0.2557934 -0.2000145
-0.9437452 -0.2644164 -0.1985672
-0.9416067 -0.2730192 -0.1970721
-0.9393983 -0.2816011 -0.1955294
-0.93712 -0.2901615 -0.193939
-0.934772 -0.2986996 -0.1923012
-0.9323543 -0.3072149 -0.1906162
-0.9298668 -0.3157065 -0.1888839
-0.9273097 -0.3241737 -0.1871047
-0.9246829 -0.332616 -0.1852787
-0.9219865 -0.3410325 -0.1834059
-0.9192205 -0.3494227 -0.1814866
-0.9163851 -0.3577857 -0.179521
-0.9134801 -0.3661209 -0.1775091
-0.9105058 -0.3744276 -0.1754513
-0.9074621 -0.3827051 -0.1733476
-0.904349 -0.3909527 -0.1711982
-0.9011668 -0.3991696 -0.1690033
-0.8979153 -0.4073551 -0.1667632
-0.8945946 -0.4155086 -0.164478