# vtk DataFile Version 2.0
Written badly by Kevin Korner
ASCII
DATASET POLYDATA
POINTS 350 FLOAT
0 0 0
0.00286533 0 0
0.005730512 9.343187e-06 2.749937e-05
0.008595235 2.878901e-05 8.312395e-05
0.01145916 5.910487e-05 0.0001674398
0.01432194 0.0001010639 0.0002809545
0.01718317 0.0001554427 0.0004241176
0.02004246 0.0002230193 0.0005973226
0.02289939 0.0003045713 0.0008009075
0.0257535 0.0004008735 0.001035156
0.02860434 0.0005126963 0.001300298
0.03145144 0.0006408041 0.001596513
0.0342943 0.0007859529 0.001923929
0.03713241 0.0009488893 0.002282623
0.03996527 0.001130349 0.002672626
0.04279235 0.001331053 0.003093919
0.0456131 0.001551712 0.003546441
0.04842699 0.001793016 0.004030084
0.05123347 0.002055644 0.004544696
0.05403198 0.002340251 0.005090087
0.05682196 0.002647478 0.005666022
0.05960286 0.002977942 0.006272232
0.06237412 0.003332242 0.006908407
0.06513517 0.003710953 0.007574203
0.06788546 0.004114628 0.008269241
0.07062443 0.004543796 0.00899311
0.07335152 0.004998963 0.009745368
0.0760662 0.00548061 0.01052554
0.07876791 0.005989192 0.01133313
0.08145613 0.006525141 0.01216761
0.08413033 0.00708886 0.01302842
0.08678998 0.007680729 0.013915
0.0894346 0.0083011 0.01482675
0.09206367 0.008950301 0.01576304
0.09467671 0.009628631 0.01672325
0.09727324 0.01033636 0.01770673
0.09985282 0.01107375 0.0187128
0.102415 0.01184101 0.01974079
0.1049593 0.01263834 0.02078999
0.1074853 0.01346591 0.02185972
0.1099927 0.01432388 0.02294924
0.112481 0.01521235 0.02405785
0.1149499 0.01613143 0.02518481
0.117399 0.01708119 0.02632938
0.1198279 0.01806169 0.02749083
0.1222364 0.01907295 0.02866841
0.1246241 0.02011497 0.02986139
0.1269908 0.02118775 0.03106901
0.129336 0.02229124 0.03229053
0.1316597 0.02342538 0.03352522
0.1339615 0.02459011 0.03477232
0.1362412 0.02578532 0.03603111
0.1384986 0.02701091 0.03730085
0.1407335 0.02826673 0.03858081
0.1429457 0.02955265 0.03987027
0.145135 0.0308685 0.04116851
0.1473013 0.0322141 0.04247484
0.1494445 0.03358925 0.04378855
0.1515644 0.03499375 0.04510895
0.153661 0.03642738 0.04643536
0.155734 0.0378899 0.04776711
0.1577835 0.03938107 0.04910353
0.1598094 0.04090063 0.05044398
0.1618116 0.04244831 0.05178782
0.1637902 0.04402384 0.05313442
0.1657449 0.04562693 0.05448317
0.1676759 0.04725729 0.05583345
0.1695831 0.04891462 0.05718469
0.1714666 0.05059861 0.0585363
0.1733263 0.05230893 0.05988771
0.1751623 0.05404528 0.06123837
0.1769747 0.05580733 0.06258775
0.1787634 0.05759473 0.06393531
0.1805284 0.05940716 0.06528054
0.18227 0.06124428 0.06662293
0.1839881 0.06310574 0.06796201
0.1856829 0.06499121 0.06929728
0.1873544 0.06690032 0.0706283
0.1890026 0.06883273 0.07195461
0.1906278 0.07078809 0.07327578
0.19223 0.07276605 0.07459138
0.1938093 0.07476625 0.07590099
0.1953658 0.07678835 0.07720423
0.1968997 0.07883197 0.0785007
0.1984111 0.08089678 0.07979003
0.1999001 0.08298243 0.08107185
0.2013669 0.08508855 0.08234582
0.2028115 0.0872148 0.08361159
0.2042342 0.08936082 0.08486883
0.2056351 0.09152628 0.08611724
0.2070143 0.09371083 0.08735649
0.2083719 0.09591411 0.0885863
0.2097082 0.0981358 0.08980638
0.2110232 0.1003756 0.09101646
0.2123172 0.102633 0.09221626
0.2135903 0.1049079 0.09340554
0.2148426 0.1071998 0.09458404
0.2160743 0.1095085 0.09575153
0.2172856 0.1118336 0.09690777
0.2184766 0.1141747 0.09805256
0.2196475 0.1165317 0.09918568
0.2207985 0.1189041 0.1003069
0.2219296 0.1212916 0.1014161
0.2230411 0.123694 0.102513
0.2241332 0.1261109 0.1035975
0.2252059 0.1285421 0.1046693
0.2262594 0.1309872 0.1057284
0.227294 0.1334459 0.1067745
0.2283097 0.135918 0.1078076
0.2293068 0.1384032 0.1088274
0.2302853 0.1409011 0.1098338
0.2312454 0.1434116 0.1108267
0.2321872 0.1459343 0.111806
0.233111 0.1484689 0.1127715
0.2340169 0.1510153 0.1137231
0.2349049 0.1535731 0.1146607
0.2357754 0.1561421 0.1155842
0.2366283 0.158722 0.1164935
0.2374638 0.1613125 0.1173885
0.2382822 0.1639135 0.1182691
0.2390834 0.1665246 0.1191351
0.2398677 0.1691457 0.1199866
0.2406351 0.1717765 0.1208234
0.2413859 0.1744167 0.1216455
0.2421201 0.1770661 0.1224527
0.2428378 0.1797245 0.1232451
0.2435392 0.1823917 0.1240224
0.2442245 0.1850674 0.1247847
0.2448936 0.1877514 0.125532
0.2455468 0.1904435 0.126264
0.2461841 0.1931436 0.1269809
0.2468057 0.1958512 0.1276824
0.2474117 0.1985664 0.1283687
0.2480021 0.2012888 0.1290395
0.248577 0.2040182 0.129695
0.2491367 0.2067545 0.1303349
0.2496811 0.2094975 0.1309594
0.2502104 0.2122469 0.1315682
0.2507247 0.2150026 0.1321615
0.251224 0.2177643 0.1327392
0.2517084 0.2205319 0.1333011
0.2521781 0.2233052 0.1338474
0.252633 0.226084 0.1343779
0.2530734 0.2288681 0.1348926
0.2534992 0.2316574 0.1353915
0.2539105 0.2344516 0.1358746
0.2543074 0.2372505 0.1363418
0.2546901 0.2400541 0.1367931
0.2550584 0.2428621 0.1372285
0.2554126 0.2456743 0.137648
0.2557526 0.2484907 0.1380515
0.2560786 0.2513109 0.138439
0.2563906 0.2541348 0.1388105
0.2566886 0.2569624 0.139166
0.2569727 0.2597933 0.1395055
0.257243 0.2626275 0.1398289
0.2574994 0.2654647 0.1401362
0.2577421 0.2683048 0.1404274
0.2579711 0.2711477 0.1407026
0.2581864 0.2739932 0.1409616
0.2583881 0.2768411 0.1412045
0.2585761 0.2796912 0.1414312
0.2587506 0.2825435 0.1416418
0.2589116 0.2853977 0.1418362
0.259059 0.2882536 0.1420145
0.259193 0.2911112 0.1421766
0.2593134 0.2939703 0.1423225
0.2594205 0.2968307 0.1424521
0.2595141 0.2996923 0.1425656
0.2595943 0.3025548 0.1426629
0.2596612 0.3054182 0.142744
0.2597146 0.3082823 0.1428089
0.2597547 0.3111469 0.1428576
0.2597814 0.314012 0.14289
0.2597948 0.3168772 0.1429062
0.2597948 0.3197426 0.1429062
0.2597814 0.3226078 0.14289
0.2597547 0.3254728 0.1428576
0.2597146 0.3283375 0.1428089
0.2596612 0.3312016 0.142744
0.2595943 0.334065 0.1426629
0.2595141 0.3369275 0.1425656
0.2594205 0.3397891 0.1424521
0.2593134 0.3426495 0.1423225
0.259193 0.3455085 0.1421766
0.259059 0.3483661 0.1420145
0.2589116 0.3512221 0.1418362
0.2587506 0.3540763 0.1416418
0.2585761 0.3569285 0.1414312
0.2583881 0.3597787 0.1412045
0.2581864 0.3626266 0.1409616
0.2579711 0.365472 0.1407026
0.2577421 0.3683149 0.1404274
0.2574994 0.3711551 0.1401362
0.257243 0.3739923 0.1398289
0.2569727 0.3768265 0.1395055
0.2566886 0.3796574 0.139166
0.2563906 0.3824849 0.1388105
0.2560786 0.3853089 0.138439
0.2557526 0.3881291 0.1380515
0.2554126 0.3909454 0.137648
0.2550584 0.3937577 0.1372285
0.2546901 0.3965657 0.1367931
0.2543074 0.3993692 0.1363418
0.2539105 0.4021682 0.1358746
0.2534992 0.4049624 0.1353915
0.2530734 0.4077517 0.1348926
0.252633 0.4105358 0.1343779
0.2521781 0.4133146 0.1338474
0.2517084 0.4160879 0.1333011
0.251224 0.4188555 0.1327392
0.2507247 0.4216172 0.1321615
0.2502104 0.4243729 0.1315682
0.2496811 0.4271223 0.1309594
0.2491367 0.4298652 0.1303349
0.248577 0.4326015 0.129695
0.2480021 0.435331 0.1290395
0.2474117 0.4380534 0.1283687
0.2468057 0.4407685 0.1276824
0.2461841 0.4434762 0.1269809
0.2455468 0.4461762 0.126264
0.2448936 0.4488684 0.125532
0.2442245 0.4515524 0.1247847
0.2435392 0.4542281 0.1240224
0.2428378 0.4568953 0.1232451
0.2421201 0.4595537 0.1224527
0.2413859 0.4622031 0.1216455
0.2406351 0.4648433 0.1208234
0.2398677 0.4674741 0.1199866
0.2390834 0.4700951 0.1191351
0.2382822 0.4727063 0.1182691
0.2374638 0.4753073 0.1173885
0.2366283 0.4778978 0.1164935
0.2357754 0.4804777 0.1155842
0.2349049 0.4830467 0.1146607
0.2340169 0.4856045 0.1137231
0.233111 0.4881508 0.1127715
0.2321872 0.4906855 0.111806
0.2312454 0.4932082 0.1108267
0.2302853 0.4957187 0.1098338
0.2293068 0.4982166 0.1088274
0.2283097 0.5007018 0.1078076
0.227294 0.5031739 0.1067745
0.2262594 0.5056326 0.1057284
0.2252059 0.5080777 0.1046693
0.2241332 0.5105089 0.1035975
0.2230411 0.5129258 0.102513
0.2219296 0.5153282 0.1014161
0.2207985 0.5177157 0.1003069
0.2196475 0.5200881 0.09918568
0.2184766 0.522445 0.09805256
0.2172856 0.5247862 0.09690777
0.2160743 0.5271113 0.09575153
0.2148426 0.5294199 0.09458404
0.2135903 0.5317119 0.09340554
0.2123172 0.5339867 0.09221626
0.2110232 0.5362442 0.09101646
0.2097082 0.538484 0.08980638
0.2083719 0.5407057 0.0885863
0.2070143 0.5429089 0.08735649
0.2056351 0.5450935 0.08611724
0.2042342 0.5472589 0.08486883
0.2028115 0.549405 0.08361159
0.2013669 0.5515312 0.08234582
0.1999001 0.5536373 0.08107185
0.1984111 0.555723 0.07979003
0.1968997 0.5577878 0.0785007
0.1953658 0.5598314 0.07720423
0.1938093 0.5618535 0.07590099
0.19223 0.5638537 0.07459138
0.1906278 0.5658317 0.07327578
0.1890026 0.567787 0.07195461
0.1873544 0.5697195 0.0706283
0.1856829 0.5716286 0.06929728
0.1839881 0.573514 0.06796201
0.18227 0.5753755 0.06662293
0.1805284 0.5772126 0.06528054
0.1787634 0.579025 0.06393531
0.1769747 0.5808124 0.06258775
0.1751623 0.5825745 0.06123837
0.1733263 0.5843108 0.05988771
0.1714666 0.5860212 0.0585363
0.1695831 0.5877052 0.05718469
0.1676759 0.5893625 0.05583345
0.1657449 0.5909928 0.05448317
0.1637902 0.5925959 0.05313442
0.1618116 0.5941715 0.05178782
0.1598094 0.5957191 0.05044398
0.1577835 0.5972387 0.04910353
0.155734 0.5987299 0.04776711
0.153661 0.6001924 0.04643536
0.1515644 0.601626 0.04510895
0.1494445 0.6030305 0.04378855
0.1473013 0.6044057 0.04247484
0.145135 0.6057513 0.04116851
0.1429457 0.6070671 0.03987027
0.1407335 0.608353 0.03858081
0.1384986 0.6096089 0.03730085
0.1362412 0.6108344 0.03603111
0.1339615 0.6120297 0.03477232
0.1316597 0.6131944 0.03352522
0.129336 0.6143285 0.03229053
0.1269908 0.615432 0.03106901
0.1246241 0.6165048 0.02986139
0.1222364 0.6175468 0.02866841
0.1198279 0.6185581 0.02749083
0.117399 0.6195386 0.02632938
0.1149499 0.6204883 0.02518481
0.112481 0.6214074 0.02405785
0.1099927 0.6222959 0.02294924
0.1074853 0.6231539 0.02185972
0.1049593 0.6239814 0.02078999
0.102415 0.6247788 0.01974079
0.09985282 0.625546 0.0187128
0.09727324 0.6262834 0.01770673
0.09467671 0.6269911 0.01672325
0.09206367 0.6276695 0.01576304
0.0894346 0.6283187 0.01482675
0.08678998 0.628939 0.013915
0.08413033 0.6295309 0.01302842
0.08145613 0.6300946 0.01216761
0.07876791 0.6306306 0.01133313
0.0760662 0.6311392 0.01052554
0.07335152 0.6316208 0.009745368
0.07062443 0.632076 0.00899311
0.06788546 0.6325051 0.008269241
0.06513517 0.6329088 0.007574203
0.06237412 0.6332875 0.006908407
0.05960286 0.6336418 0.006272232
0.05682196 0.6339723 0.005666022
0.05403198 0.6342795 0.005090087
0.05123347 0.6345641 0.004544696
0.04842699 0.6348268 0.004030084
0.0456131 0.6350681 0.003546441
0.04279235 0.6352887 0.003093919
0.03996527 0.6354894 0.002672626
0.03713241 0.6356709 0.002282623
0.0342943 0.6358338 0.001923929
0.03145144 0.635979 0.001596513
0.02860434 0.6361071 0.001300298
0.0257535 0.6362189 0.001035156
0.02289939 0.6363152 0.0008009075
0.02004246 0.6363968 0.0005973226
0.01718317 0.6364643 0.0004241176
0.01432194 0.6365187 0.0002809545
0.01145916 0.6365607 0.0001674398
0.008595235 0.636591 8.312395e-05
0.005730512 0.6366104 2.749937e-05
0.00286533 0.6366198 0
0 0.6366198 0

LINES 349 1047
2 0 1
2 1 2
2 2 3
2 3 4
2 4 5
2 5 6
2 6 7
2 7 8
2 8 9
2 9 10
2 10 11
2 11 12
2 12 13
2 13 14
2 14 15
2 15 16
2 16 17
2 17 18
2 18 19
2 19 20
2 20 21
2 21 22
2 22 23
2 23 24
2 24 25
2 25 26
2 26 27
2 27 28
2 28 29
2 29 30
2 30 31
2 31 32
2 32 33
2 33 34
2 34 35
2 35 36
2 36 37
2 37 38
2 38 39
2 39 40
2 40 41
2 41 42
2 42 43
2 43 44
2 44 45
2 45 46
2 46 47
2 47 48
2 48 49
2 49 50
2 50 51
2 51 52
2 52 53
2 53 54
2 54 55
2 55 56
2 56 57
2 57 58
2 58 59
2 59 60
2 60 61
2 61 62
2 62 63
2 63 64
2 64 65
2 65 66
2 66 67
2 67 68
2 68 69
2 69 70
2 70 71
2 71 72
2 72 73
2 73 74
2 74 75
2 75 76
2 76 77
2 77 78
2 78 79
2 79 80
2 80 81
2 81 82
2 82 83
2 83 84
2 84 85
2 85 86
2 86 87
2 87 88
2 88 89
2 89 90
2 90 91
2 91 92
2 92 93
2 93 94
2 94 95
2 95 96
2 96 97
2 97 98
2 98 99
2 99 100
2 100 101
2 101 102
2 102 103
2 103 104
2 104 105
2 105 106
2 106 107
2 107 108
2 108 109
2 109 110
2 110 111
2 111 112
2 112 113
2 113 114
2 114 115
2 115 116
2 116 117
2 117 118
2 118 119
2 119 120
2 120 121
2 121 122
2 122 123
2 123 124
2 124 125
2 125 126
2 126 127
2 127 128
2 128 129
2 129 130
2 130 131
2 131 132
2 132 133
2 133 134
2 134 135
2 135 136
2 136 137
2 137 138
2 138 139
2 139 140
2 140 141
2 141 142
2 142 143
2 143 144
2 144 145
2 145 146
2 146 147
2 147 148
2 148 149
2 149 150
2 150 151
2 151 152
2 152 153
2 153 154
2 154 155
2 155 156
2 156 157
2 157 158
2 158 159
2 159 160
2 160 161
2 161 162
2 162 163
2 163 164
2 164 165
2 165 166
2 166 167
2 167 168
2 168 169
2 169 170
2 170 171
2 171 172
2 172 173
2 173 174
2 174 175
2 175 176
2 176 177
2 177 178
2 178 179
2 179 180
2 180 181
2 181 182
2 182 183
2 183 184
2 184 185
2 185 186
2 186 187
2 187 188
2 188 189
2 189 190
2 190 191
2 191 192
2 192 193
2 193 194
2 194 195
2 195 196
2 196 197
2 197 198
2 198 199
2 199 200
2 200 201
2 201 202
2 202 203
2 203 204
2 204 205
2 205 206
2 206 207
2 207 208
2 208 209
2 209 210
2 210 211
2 211 212
2 212 213
2 213 214
2 214 215
2 215 216
2 216 217
2 217 218
2 218 219
2 219 220
2 220 221
2 221 222
2 222 223
2 223 224
2 224 225
2 225 226
2 226 227
2 227 228
2 228 229
2 229 230
2 230 231
2 231 232
2 232 233
2 233 234
2 234 235
2 235 236
2 236 237
2 237 238
2 238 239
2 239 240
2 240 241
2 241 242
2 242 243
2 243 244
2 244 245
2 245 246
2 246 247
2 247 248
2 248 249
2 249 250
2 250 251
2 251 252
2 252 253
2 253 254
2 254 255
2 255 256
2 256 257
2 257 258
2 258 259
2 259 260
2 260 261
2 261 262
2 262 263
2 263 264
2 264 265
2 265 266
2 266 267
2 267 268
2 268 269
2 269 270
2 270 271
2 271 272
2 272 273
2 273 274
2 274 275
2 275 276
2 276 277
2 277 278
2 278 279
2 279 280
2 280 281
2 281 282
2 282 283
2 283 284
2 284 285
2 285 286
2 286 287
2 287 288
2 288 289
2 289 290
2 290 291
2 291 292
2 292 293
2 293 294
2 294 295
2 295 296
2 296 297
2 297 298
2 298 299
2 299 300
2 300 301
2 301 302
2 302 303
2 303 304
2 304 305
2 305 306
2 306 307
2 307 308
2 308 309
2 309 310
2 310 311
2 311 312
2 312 313
2 313 314
2 314 315
2 315 316
2 316 317
2 317 318
2 318 319
2 319 320
2 320 321
2 321 322
2 322 323
2 323 324
2 324 325
2 325 326
2 326 327
2 327 328
2 328 329
2 329 330
2 330 331
2 331 332
2 332 333
2 333 334
2 334 335
2 335 336
2 336 337
2 337 338
2 338 339
2 339 340
2 340 341
2 341 342
2 342 343
2 343 344
2 344 345
2 345 346
2 346 347
2 347 348
2 348 349


POINT_DATA 350
SCALARS a FLOAT 1
LOOKUP_TABLE default
0.0005894628
0.0005894628
0.0005894628
0.0005894628
0.0005894628
0.0005894628
0.0005894628
0.0005894628
0.0005894628
0.0005894628
0.0005894628
0.0005894628
0.0005894628
0.0005894628
0.0005894628
0.0005894628
0.0005894628
0.0005894628
0.0005894628
0.0005894628
0.0005894628
0.0005894628
0.0005894628
0.0005894628
0.0005894628
0.0005894628
0.0005894628
0.0005894628
0.0005894628
0.0005894628
0.0005894628
0.0005894628
0.0005894628
0.0005894628
0.0005894628
0.0005894628
0.0005894628
0.0005894628
0.0005894628
0.0005894628
0.0005894628
0.0005894628
0.0005894628
0.0005894628
0.0005894628
0.0005894628
0.0005894628
0.0005894628
0.0005894628
0.0005894628
0.0005894628
0.0005894628
0.0005894628
0.0005894628
0.0005894628
0.0005894628
0.0005894628
0.0005894628
0.0005894628
0.0005894628
0.0005894628
0.0005894628
0.0005894628
0.0005894628
0.0005894628
0.0005894628
0.0005894628
0.0005894628
0.0005894628
0.0005894628
0.0005894628
0.0005894628
0.0005894628
0.0005894628
0.0005894628
0.0005894628
0.0005894628
0.0005894628
0.0005894628
0.0005894628
0.0005894628
0.0005894628
0.0005894628
0.0005894628
0.0005894628
0.0005894628
0.0005894628
0.0005894628
0.0005894628
0.0005894628
0.0005894628
0.0005894628
0.0005894628
0.0005894628
0.0005894628
0.0005894628
0.0005894628
0.0005894628
0.0005894628
0.0005894628
0.0005894628
0.0005894628
0.0005894628
0.0005894628
0.0005894628
0.0005894628
0.0005894628
0.0005894628
0.0005894628
0.0005894628
0.0005894628
0.0005894628
0.0005894628
0.0005894628
0.0005894628
0.0005894628
0.0005894628
0.0005894628
0.0005894628
0.0005894628
0.0005894628
0.0005894628
0.0005894628
0.0005894628
0.0005894628
0.0005894628
0.0005894628
0.0005894628
0.0005894628
0.0005894628
0.0005894628
0.0005894628
0.0005894628
0.0005894628
0.0005894628
0.0005894628
0.0005894628
0.0005894628
0.0005894628
0.0005894628
0.0005894628
0.0005894628
0.0005894628
0.0005894628
0.0005894628
0.0005894628
0.0005894628
0.0005894628
0.0005894628
0.0005894628
0.0005894628
0.0005894628
0.0005894628
0.0005894628
0.0005894628
0.0005894628
0.0005894628
0.0005894628
0.0005894628
0.0005894628
0.0005894628
0.0005894628
0.0005894628
0.0005894628
0.0005894628
0.0005894628
0.0005894628
0.0005894628
0.0005894628
0.0005894628
0.0005894628
0.0005894628
0.0005894628
0.0005894628
0.0005894628
0.0005894628
0.0005894628
0.0005894628
0.0005894628
0.0005894628
0.0005894628
0.0005894628
0.0005894628
0.0005894628
0.0005894628
0.0005894628
0.0005894628
0.0005894628
0.0005894628
0.0005894628
0.0005894628
0.0005894628
0.0005894628
0.0005894628
0.0005894628
0.0005894628
0.0005894628
0.0005894628
0.0005894628
0.0005894628
0.0005894628
0.0005894628
0.0005894628
0.0005894628
0.0005894628
0.0005894628
0.0005894628
0.0005894628
0.0005894628
0.0005894628
0.0005894628
0.0005894628
0.0005894628
0.0005894628
0.0005894628
0.0005894628
0.0005894628
0.0005894628
0.0005894628
0.0005894628
0.0005894628
0.0005894628
0.0005894628
0.0005894628
0.0005894628
0.0005894628
0.0005894628
0.0005894628
0.0005894628
0.0005894628
0.0005894628
0.0005894628
0.0005894628
0.0005894628
0.0005894628
0.0005894628
0.0005894628
0.0005894628
0.0005894628
0.0005894628
0.0005894628
0.0005894628
0.0005894628
0.0005894628
0.0005894628
0.0005894628
0.0005894628
0.0005894628
0.0005894628
0.0005894628
0.0005894628
0.0005894628
0.0005894628
0.0005894628
0.0005894628
0.0005894628
0.0005894628
0.0005894628
0.0005894628
0.0005894628
0.0005894628
0.0005894628
0.0005894628
0.0005894628
0.0005894628
0.0005894628
0.0005894628
0.0005894628
0.0005894628
0.0005894628
0.0005894628
0.0005894628
0.0005894628
0.0005894628
0.0005894628
0.0005894628
0.0005894628
0.0005894628
0.0005894628
0.0005894628
0.0005894628
0.0005894628
0.0005894628
0.0005894628
0.0005894628
0.0005894628
0.0005894628
0.0005894628
0.0005894628
0.0005894628
0.0005894628
0.0005894628
0.0005894628
0.0005894628
0.0005894628
0.0005894628
0.0005894628
0.0005894628
0.0005894628
0.0005894628
0.0005894628
0.0005894628
0.0005894628
0.0005894628
0.0005894628
0.0005894628
0.0005894628
0.0005894628
0.0005894628
0.0005894628
0.0005894628
0.0005894628
0.0005894628
0.0005894628
0.0005894628
0.0005894628
0.0005894628
0.0005894628
0.0005894628
0.0005894628
0.0005894628
0.0005894628
0.0005894628
0.0005894628
0.0005894628
0.0005894628
0.0005894628
0.0005894628
0.0005894628
0.0005894628
0.0005894628
0.0005894628
0.0005894628
0.0005894628
0.0005894628
0.0005894628
0.0005894628
0.0005894628
0.0005894628
0.0005894628
0.0005894628
0.0005894628
0.0005894628
0.0005894628
0.0005894628
0.0005894628
0.0005894628
0.0005894628
0.0005894628
0.0005894628


SCALARS b FLOAT 1
LOOKUP_TABLE default
0.02357851
0.02357851
0.02357851
0.02357851
0.02357851
0.02357851
0.02357851
0.02357851
0.02357851
0.02357851
0.02357851
0.02357851
0.02357851
0.02357851
0.02357851
0.02357851
0.02357851
0.02357851
0.02357851
0.02357851
0.02357851
0.02357851
0.02357851
0.02357851
0.02357851
0.02357851
0.02357851
0.02357851
0.02357851
0.02357851
0.02357851
0.02357851
0.02357851
0.02357851
0.02357851
0.02357851
0.02357851
0.02357851
0.02357851
0.02357851
0.02357851
0.02357851
0.02357851
0.02357851
0.02357851
0.02357851
0.02357851
0.02357851
0.02357851
0.02357851
0.02357851
0.02357851
0.02357851
0.02357851
0.02357851
0.02357851
0.02357851
0.02357851
0.02357851
0.02357851
0.02357851
0.02357851
0.02357851
0.02357851
0.02357851
0.02357851
0.02357851
0.02357851
0.02357851
0.02357851
0.02357851
0.02357851
0.02357851
0.02357851
0.02357851
0.02357851
0.02357851
0.02357851
0.02357851
0.02357851
0.02357851
0.02357851
0.02357851
0.02357851
0.02357851
0.02357851
0.02357851
0.02357851
0.02357851
0.02357851
0.02357851
0.02357851
0.02357851
0.02357851
0.02357851
0.02357851
0.02357851
0.02357851
0.02357851
0.02357851
0.02357851
0.02357851
0.02357851
0.02357851
0.02357851
0.02357851
0.02357851
0.02357851
0.02357851
0.02357851
0.02357851
0.02357851
0.02357851
0.02357851
0.02357851
0.02357851
0.02357851
0.02357851
0.02357851
0.02357851
0.02357851
0.02357851
0.02357851
0.02357851
0.02357851
0.02357851
0.02357851
0.02357851
0.02357851
0.02357851
0.02357851
0.02357851
0.02357851
0.02357851
0.02357851
0.02357851
0.02357851
0.02357851
0.02357851
0.02357851
0.02357851
0.02357851
0.02357851
0.02357851
0.02357851
0.02357851
0.02357851
0.02357851
0.02357851
0.02357851
0.02357851
0.02357851
0.02357851
0.02357851
0.02357851
0.02357851
0.02357851
0.02357851
0.02357851
0.02357851
0.02357851
0.02357851
0.02357851
0.02357851
0.02357851
0.02357851
0.02357851
0.02357851
0.02357851
0.02357851
0.02357851
0.02357851
0.02357851
0.02357851
0.02357851
0.02357851
0.02357851
0.02357851
0.02357851
0.02357851
0.02357851
0.02357851
0.02357851
0.02357851
0.02357851
0.02357851
0.02357851
0.02357851
0.02357851
0.02357851
0.02357851
0.02357851
0.02357851
0.02357851
0.02357851
0.02357851
0.02357851
0.02357851
0.02357851
0.02357851
0.02357851
0.02357851
0.02357851
0.02357851
0.02357851
0.02357851
0.02357851
0.02357851
0.02357851
0.02357851
0.02357851
0.02357851
0.02357851
0.02357851
0.02357851
0.02357851
0.02357851
0.02357851
0.02357851
0.02357851
0.02357851
0.02357851
0.02357851
0.02357851
0.02357851
0.02357851
0.02357851
0.02357851
0.02357851
0.02357851
0.02357851
0.02357851
0.02357851
0.02357851
0.02357851
0.02357851
0.02357851
0.02357851
0.02357851
0.02357851
0.02357851
0.02357851
0.02357851
0.02357851
0.02357851
0.02357851
0.02357851
0.02357851
0.02357851
0.02357851
0.02357851
0.02357851
0.02357851
0.02357851
0.02357851
0.02357851
0.02357851
0.02357851
0.02357851
0.02357851
0.02357851
0.02357851
0.02357851
0.02357851
0.02357851
0.02357851
0.02357851
0.02357851
0.02357851
0.02357851
0.02357851
0.02357851
0.02357851
0.02357851
0.02357851
0.02357851
0.02357851
0.02357851
0.02357851
0.02357851
0.02357851
0.02357851
0.02357851
0.02357851
0.02357851
0.02357851
0.02357851
0.02357851
0.02357851
0.02357851
0.02357851
0.02357851
0.02357851
0.02357851
0.02357851
0.02357851
0.02357851
0.02357851
0.02357851
0.02357851
0.02357851
0.02357851
0.02357851
0.02357851
0.02357851
0.02357851
0.02357851
0.02357851
0.02357851
0.02357851
0.02357851
0.02357851
0.02357851
0.02357851
0.02357851
0.02357851
0.02357851
0.02357851
0.02357851
0.02357851
0.02357851
0.02357851
0.02357851
0.02357851
0.02357851
0.02357851
0.02357851
0.02357851
0.02357851
0.02357851
0.02357851
0.02357851
0.02357851
0.02357851
0.02357851
0.02357851
0.02357851
0.02357851
0.02357851
0.02357851
0.02357851
0.02357851
0.02357851
0.02357851
0.02357851
0.02357851
0.02357851
0.02357851
0.02357851
0.02357851


VECTORS d1 FLOAT
0 0.3120033 0.950081
-0.01013583 0.3284611 0.9444631
-0.02056251 0.344754 0.9384678
-0.03126135 0.3608699 0.9320921
-0.04221393 0.3767972 0.9253334
-0.05340212 0.3925241 0.9181901
-0.06480803 0.4080391 0.9106613
-0.07641402 0.4233309 0.9027468
-0.08820271 0.4383884 0.8944472
-0.100157 0.4532009 0.8857638
-0.1122599 0.4677577 0.8766986
-0.1244949 0.4820487 0.8672543
-0.1368455 0.4960641 0.8574344
-0.1492958 0.5097943 0.8472429
-0.1618298 0.5232304 0.8366846
-0.1744321 0.5363635 0.8257649
-0.1870873 0.5491855 0.8144898
-0.1997806 0.5616887 0.8028659
-0.2124973 0.5738655 0.7909003
-0.2252231 0.5857093 0.7786007
-0.2379442 0.5972137 0.7659754
-0.250647 0.6083727 0.753033
-0.2633181 0.6191811 0.7397826
-0.2759448 0.629634 0.7262337
-0.2885147 0.6397271 0.7123963
-0.3010156 0.6494565 0.6982806
-0.3134359 0.658819 0.6838973
-0.3257643 0.6678118 0.6692571
-0.3379902 0.6764325 0.6543712
-0.350103 0.6846795 0.6392511
-0.3620929 0.6925513 0.6239081
-0.3739503 0.7000474 0.6083542
-0.3856663 0.7071673 0.592601
-0.3972321 0.7139113 0.5766605
-0.4086396 0.7202799 0.5605449
-0.4198812 0.7262743 0.544266
-0.4309495 0.7318959 0.5278361
-0.4418378 0.7371467 0.5112671
-0.4525397 0.7420291 0.4945711
-0.4630494 0.7465458 0.4777601
-0.4733613 0.7506998 0.4608459
-0.4834705 0.7544946 0.4438403
-0.4933722 0.757934 0.4267551
-0.5030625 0.7610221 0.4096016
-0.5125374 0.7637634 0.3923912
-0.5217938 0.7661625 0.375135
-0.5308285 0.7682244 0.3578441
-0.5396392 0.7699542 0.3405291
-0.5482235 0.7713575 0.3232006
-0.5565798 0.7724398 0.3058688
-0.5647066 0.773207 0.2885437
-0.5726028 0.7736651 0.2712351
-0.5802676 0.7738202 0.2539524
-0.5877007 0.7736787 0.2367049
-0.5949019 0.7732469 0.2195015
-0.6018715 0.7725314 0.2023508
-0.60861 0.7715389 0.1852611
-0.615118 0.7702759 0.1682405
-0.6213967 0.7687493 0.1512967
-0.6274473 0.7669658 0.1344371
-0.6332714 0.7649322 0.1176689
-0.6388708 0.7626555 0.1009989
-0.6442473 0.7601424 0.08443361
-0.6494032 0.7573997 0.06797929
-0.6543409 0.7544343 0.05164185
-0.6590628 0.751253 0.03542692
-0.6635718 0.7478626 0.01933987
-0.6678707 0.7442696 0.003385736
-0.6719626 0.7404808 -0.0124307
-0.6758505 0.7365027 -0.02810493
-0.6795378 0.7323419 -0.04363273
-0.6830278 0.7280047 -0.05901014
-0.6863242 0.7234974 -0.07423346
-0.6894304 0.7188264 -0.08929924
-0.6923502 0.7139977 -0.1042043
-0.6950872 0.7090174 -0.1189456
-0.6976455 0.7038914 -0.1335205
-0.7000288 0.6986254 -0.1479265
-0.7022411 0.6932252 -0.1621612
-0.7042863 0.6876964 -0.1762227
-0.7061686 0.6820444 -0.190109
-0.7078919 0.6762745 -0.2038185
-0.7094603 0.6703918 -0.2173497
-0.710878 0.6644016 -0.2307013
-0.712149 0.6583086 -0.2438722
-0.7132775 0.6521177 -0.2568614
-0.7142675 0.6458336 -0.2696682
-0.7151232 0.6394608 -0.2822918
-0.7158488 0.6330037 -0.2947319
-0.7164482 0.6264666 -0.306988
-0.7169255 0.6198536 -0.31906
-0.7172849 0.6131688 -0.3309478
-0.7175303 0.606416 -0.3426513
-0.7176657 0.599599 -0.3541707
-0.7176952 0.5927215 -0.3655063
-0.7176226 0.5857868 -0.3766585
-0.7174519 0.5787985 -0.3876276
-0.7171868 0.5717597 -0.3984142
-0.7168313 0.5646737 -0.409019
-0.716389 0.5575434 -0.4194426
-0.7158638 0.5503718 -0.4296858
-0.7152594 0.5431615 -0.4397495
-0.7145792 0.5359154 -0.4496345
-0.713827 0.528636 -0.4593419
-0.7130063 0.5213258 -0.4688726
-0.7121205 0.513987 -0.4782277
-0.7111731 0.5066221 -0.4874083
-0.7101675 0.499233 -0.4964157
-0.7091069 0.491822 -0.5052509
-0.7079947 0.4843909 -0.5139153
-0.7068341 0.4769416 -0.5224101
-0.7056282 0.4694759 -0.5307365
-0.7043801 0.4619956 -0.5388959
-0.7030929 0.4545021 -0.5468896
-0.7017695 0.4469971 -0.554719
-0.7004129 0.439482 -0.5623854
-0.6990259 0.4319582 -0.5698902
-0.6976114 0.4244269 -0.5772349
-0.6961722 0.4168894 -0.5844207
-0.6947109 0.4093468 -0.5914491
-0.6932301 0.4018002 -0.5983215
-0.6917326 0.3942506 -0.6050392
-0.6902207 0.386699 -0.6116038
-0.6886971 0.3791463 -0.6180165
-0.687164 0.3715933 -0.6242788
-0.6856239 0.3640407 -0.6303921
-0.6840792 0.3564894 -0.6363576
-0.682532 0.3489398 -0.6421768
-0.6809845 0.3413928 -0.6478511
-0.679439 0.3338487 -0.6533817
-0.6778975 0.3263082 -0.65877
-0.6763621 0.3187718 -0.6640172
-0.6748348 0.3112397 -0.6691247
-0.6733175 0.3037125 -0.6740937
-0.6718121 0.2961905 -0.6789255
-0.6703204 0.2886739 -0.6836212
-0.6688443 0.281163 -0.6881822
-0.6673854 0.2736581 -0.6926095
-0.6659456 0.2661594 -0.6969043
-0.6645264 0.258667 -0.7010678
-0.6631293 0.2511811 -0.7051011
-0.6617561 0.2437018 -0.7090052
-0.6604081 0.2362291 -0.7127812
-0.6590868 0.2287631 -0.7164301
-0.6577936 0.2213038 -0.7199529
-0.6565299 0.2138512 -0.7233507
-0.6552969 0.2064053 -0.7266242
-0.654096 0.1989661 -0.7297746
-0.6529283 0.1915334 -0.7328026
-0.651795 0.1841072 -0.735709
-0.6506973 0.1766874 -0.7384948
-0.6496361 0.1692739 -0.7411607
-0.6486126 0.1618664 -0.7437075
-0.6476278 0.1544649 -0.746136
-0.6466824 0.1470692 -0.7484467
-0.6457776 0.1396791 -0.7506404
-0.6449141 0.1322943 -0.7527178
-0.6440926 0.1249147 -0.7546794
-0.6433141 0.1175401 -0.7565258
-0.6425792 0.1101701 -0.7582576
-0.6418885 0.1028047 -0.7598752
-0.6412427 0.0954434 -0.7613792
-0.6406424 0.08808608 -0.76277
-0.6400882 0.08073242 -0.764048
-0.6395805 0.07338214 -0.7652136
-0.6391197 0.06603497 -0.7662672
-0.6387064 0.0586906 -0.7672089
-0.6383408 0.05134874 -0.7680393
-0.6380233 0.04400908 -0.7687584
-0.6377542 0.03667132 -0.7693665
-0.6375337 0.02933514 -0.7698638
-0.637362 0.02200024 -0.7702504
-0.6372392 0.0146663 -0.7705265
-0.6371655 0.007332988 -0.7706921
-0.6371409 3.515521e-13 -0.7707473
-0.6371655 -0.007332988 -0.7706921
-0.6372392 -0.0146663 -0.7705265
-0.637362 -0.02200024 -0.7702504
-0.6375337 -0.02933514 -0.7698638
-0.6377542 -0.03667132 -0.7693665
-0.6380233 -0.04400908 -0.7687584
-0.6383408 -0.05134874 -0.7680393
-0.6387064 -0.0586906 -0.7672089
-0.6391197 -0.06603497 -0.7662672
-0.6395805 -0.07338214 -0.7652136
-0.6400882 -0.08073242 -0.764048
-0.6406424 -0.08808608 -0.76277
-0.6412427 -0.0954434 -0.7613792
-0.6418885 -0.1028047 -0.7598752
-0.6425792 -0.1101701 -0.7582576
-0.6433141 -0.1175401 -0.7565258
-0.6440926 -0.1249147 -0.7546794
-0.6449141 -0.1322943 -0.7527178
-0.6457776 -0.1396791 -0.7506404
-0.6466824 -0.1470692 -0.7484467
-0.6476278 -0.1544649 -0.746136
-0.6486126 -0.1618664 -0.7437075
-0.6496361 -0.1692739 -0.7411607
-0.6506973 -0.1766874 -0.7384948
-0.651795 -0.1841072 -0.735709
-0.6529283 -0.1915334 -0.7328026
-0.654096 -0.1989661 -0.7297746
-0.6552969 -0.2064053 -0.7266242
-0.6565299 -0.2138512 -0.7233507
-0.6577936 -0.2213038 -0.7199529
-0.6590868 -0.2287631 -0.7164301
-0.6604081 -0.2362291 -0.7127812
-0.6617561 -0.2437018 -0.7090052
-0.6631293 -0.2511811 -0.7051011
-0.6645264 -0.258667 -0.7010678
-0.6659456 -0.2661594 -0.6969043
-0.6673854 -0.2736581 -0.6926095
-0.6688443 -0.281163 -0.6881822
-0.6703204 -0.2886739 -0.6836212
-0.6718121 -0.2961905 -0.6789255
-0.6733175 -0.3037125 -0.6740937
-0.6748348 -0.3112397 -0.6691247
-0.6763621 -0.3187718 -0.6640172
-0.6778975 -0.3263082 -0.65877
-0.679439 -0.3338487 -0.6533817
-0.6809845 -0.3413928 -0.6478511
-0.682532 -0.3489398 -0.6421768
-0.6840792 -0.3564894 -0.6363576
-0.6856239 -0.3640407 -0.6303921
-0.687164 -0.3715933 -0.6242788
-0.6886971 -0.3791463 -0.6180165
-0.6902207 -0.386699 -0.6116038
-0.6917326 -0.3942506 -0.6050392
-0.6932301 -0.4018002 -0.5983215