# vtk DataFile Version 2.0
Written badly by Kevin Korner
ASCII
DATASET POLYDATA
POINTS 350 FLOAT
0 0 0
0.00286533 0 0
0.005730597 2.366461e-06 1.864317e-05
0.008595649 7.798135e-06 5.814905e-05
0.01146028 1.705776e-05 0.0001205547
0.01432425 3.096424e-05 0.000207726
0.01718726 5.038566e-05 0.000321368
0.02004897 7.623278e-05 0.0004630344
0.02290899 0.0001094532 0.0006341364
0.02576691 0.0001510257 0.0008359497
0.02862224 0.0002019554 0.001069621
0.03147448 0.0002632683 0.001336176
0.0343231 0.0003360074 0.00163652
0.03716751 0.0004212276 0.001971447
0.04000711 0.0005199917 0.002341642
0.04284125 0.0006333665 0.002747685
0.04566929 0.0007624187 0.003190055
0.04849052 0.0009082114 0.003669132
0.05130424 0.0010718 0.004185203
0.05410972 0.00125423 0.004738462
0.05690623 0.001456532 0.005329015
0.05969299 0.00167972 0.005956883
0.06246926 0.001924788 0.006622006
0.06523426 0.002192707 0.007324242
0.0679872 0.002484423 0.008063375
0.07072731 0.002800854 0.008839115
0.07345381 0.003142888 0.009651102
0.07616592 0.003511381 0.01049891
0.07886287 0.003907156 0.01138205
0.0815439 0.004330999 0.01229997
0.08420824 0.004783659 0.01325206
0.08685516 0.005265848 0.01423767
0.08948393 0.005778238 0.01525608
0.09209383 0.006321458 0.01630653
0.09468417 0.006896099 0.01738822
0.09725426 0.007502709 0.01850031
0.09980346 0.008141792 0.01964192
0.1023311 0.008813811 0.02081213
0.1048367 0.009519187 0.02201001
0.1073194 0.0102583 0.02323459
0.1097789 0.01103147 0.02448485
0.1122146 0.01183901 0.0257598
0.114626 0.01268115 0.0270584
0.1170125 0.01355812 0.0283796
0.1193737 0.01447007 0.02972234
0.1217093 0.01541714 0.03108554
0.1240188 0.01639942 0.03246814
0.1263018 0.01741696 0.03386905
0.128558 0.01846977 0.03528719
0.1307871 0.01955783 0.03672148
0.1329889 0.02068109 0.03817084
0.135163 0.02183946 0.0396342
0.1373093 0.02303283 0.0411105
0.1394276 0.02426103 0.04259867
0.1415176 0.02552389 0.04409768
0.1435793 0.0268212 0.04560648
0.1456126 0.02815272 0.04712407
0.1476173 0.02951821 0.04864943
0.1495934 0.03091737 0.05018159
0.1515408 0.03234989 0.05171958
0.1534596 0.03381547 0.05326244
0.1553498 0.03531373 0.05480925
0.1572113 0.03684434 0.0563591
0.1590443 0.0384069 0.05791111
0.1608488 0.04000102 0.0594644
0.1626249 0.04162629 0.06101815
0.1643727 0.04328229 0.06257152
0.1660923 0.04496858 0.06412373
0.1677839 0.04668473 0.06567401
0.1694477 0.04843028 0.06722161
0.1710838 0.05020477 0.0687658
0.1726924 0.05200773 0.0703059
0.1742736 0.05383869 0.07184122
0.1758279 0.05569718 0.07337111
0.1773552 0.0575827 0.07489495
0.178856 0.05949478 0.07641214
0.1803303 0.06143292 0.0779221
0.1817786 0.06339664 0.07942426
0.1832009 0.06538546 0.08091811
0.1845977 0.06739887 0.08240313
0.1859692 0.0694364 0.08387883
0.1873156 0.07149755 0.08534474
0.1886373 0.07358185 0.08680042
0.1899345 0.07568881 0.08824545
0.1912075 0.07781795 0.08967941
0.1924567 0.07996879 0.09110194
0.1936823 0.08214087 0.09251265
0.1948846 0.08433371 0.09391121
0.196064 0.08654686 0.09529728
0.1972206 0.08877986 0.09667056
0.198355 0.09103225 0.09803075
0.1994673 0.0933036 0.09937758
0.2005578 0.09559345 0.1007108
0.2016269 0.09790138 0.1020301
0.2026748 0.100227 0.1033353
0.2037019 0.1025698 0.1046262
0.2047085 0.1049294 0.1059026
0.2056949 0.1073054 0.1071642
0.2066612 0.1096974 0.108411
0.207608 0.1121051 0.1096427
0.2085354 0.1145279 0.1108592
0.2094437 0.1169656 0.1120603
0.2103332 0.1194178 0.113246
0.2112042 0.1218841 0.114416
0.2120569 0.1243641 0.1155703
0.2128918 0.1268575 0.1167088
0.2137089 0.1293639 0.1178314
0.2145086 0.1318831 0.1189379
0.2152911 0.1344146 0.1200284
0.2160568 0.1369582 0.1211027
0.2168058 0.1395135 0.1221608
0.2175383 0.1420802 0.1232025
0.2182548 0.1446581 0.124228
0.2189553 0.1472467 0.1252371
0.2196401 0.1498459 0.1262298
0.2203095 0.1524553 0.127206
0.2209636 0.1550747 0.1281657
0.2216027 0.1577038 0.1291089
0.2222271 0.1603422 0.1300356
0.2228368 0.1629899 0.1309458
0.2234322 0.1656464 0.1318393
0.2240134 0.1683116 0.1327164
0.2245807 0.1709852 0.1335768
0.2251341 0.1736669 0.1344206
0.225674 0.1763566 0.1352479
0.2262004 0.1790539 0.1360586
0.2267137 0.1817587 0.1368527
0.2272139 0.1844708 0.1376302
0.2277011 0.1871899 0.1383912
0.2281757 0.1899159 0.1391356
0.2286377 0.1926484 0.1398635
0.2290873 0.1953874 0.1405749
0.2295247 0.1981326 0.1412697
0.22995 0.2008838 0.141948
0.2303633 0.2036408 0.1426098
0.2307648 0.2064035 0.1432552
0.2311546 0.2091717 0.1438841
0.2315328 0.2119451 0.1444966
0.2318996 0.2147236 0.1450927
0.2322552 0.2175071 0.1456723
0.2325995 0.2202953 0.1462356
0.2329328 0.2230882 0.1467825
0.2332551 0.2258854 0.1473131
0.2335665 0.228687 0.1478274
0.2338673 0.2314926 0.1483253
0.2341573 0.2343022 0.148807
0.2344368 0.2371157 0.1492724
0.2347059 0.2399328 0.1497216
0.2349646 0.2427533 0.1501546
0.235213 0.2455773 0.1505713
0.2354512 0.2484045 0.1509719
0.2356793 0.2512347 0.1513563
0.2358973 0.2540679 0.1517245
0.2361053 0.2569039 0.1520766
0.2363035 0.2597426 0.1524126
0.2364918 0.2625838 0.1527325
0.2366703 0.2654273 0.1530362
0.236839 0.2682732 0.153324
0.2369981 0.2711212 0.1535956
0.2371476 0.2739712 0.1538512
0.2372875 0.276823 0.1540908
0.2374179 0.2796767 0.1543143
0.2375388 0.2825319 0.1545218
0.2376502 0.2853887 0.1547133
0.2377523 0.2882468 0.1548889
0.2378449 0.2911062 0.1550484
0.2379282 0.2939667 0.155192
0.2380022 0.2968282 0.1553196
0.2380669 0.2996906 0.1554312
0.2381223 0.3025538 0.1555269
0.2381684 0.3054177 0.1556066
0.2382053 0.3082821 0.1556704
0.238233 0.3111469 0.1557182
0.2382514 0.314012 0.1557501
0.2382606 0.3168772 0.155766
0.2382606 0.3197426 0.155766
0.2382514 0.3226078 0.1557501
0.238233 0.3254729 0.1557182
0.2382053 0.3283377 0.1556704
0.2381684 0.3312021 0.1556066
0.2381223 0.3340659 0.1555269
0.2380669 0.3369291 0.1554312
0.2380022 0.3397916 0.1553196
0.2379282 0.3426531 0.155192
0.2378449 0.3455136 0.1550484
0.2377523 0.348373 0.1548889
0.2376502 0.3512311 0.1547133
0.2375388 0.3540879 0.1545218
0.2374179 0.3569431 0.1543143
0.2372875 0.3597967 0.1540908
0.2371476 0.3626486 0.1538512
0.2369981 0.3654986 0.1535956
0.236839 0.3683466 0.153324
0.2366703 0.3711924 0.1530362
0.2364918 0.374036 0.1527325
0.2363035 0.3768772 0.1524126
0.2361053 0.3797159 0.1520766
0.2358973 0.3825518 0.1517245
0.2356793 0.385385 0.1513563
0.2354512 0.3882153 0.1509719
0.235213 0.3910425 0.1505713
0.2349646 0.3938664 0.1501546
0.2347059 0.396687 0.1497216
0.2344368 0.3995041 0.1492724
0.2341573 0.4023175 0.148807
0.2338673 0.4051271 0.1483253
0.2335665 0.4079328 0.1478274
0.2332551 0.4107343 0.1473131
0.2329328 0.4135316 0.1467825
0.2325995 0.4163244 0.1462356
0.2322552 0.4191127 0.1456723
0.2318996 0.4218962 0.1450927
0.2315328 0.4246747 0.1444966
0.2311546 0.4274481 0.1438841
0.2307648 0.4302163 0.1432552
0.2303633 0.4329789 0.1426098
0.22995 0.435736 0.141948
0.2295247 0.4384872 0.1412697
0.2290873 0.4412324 0.1405749
0.2286377 0.4439713 0.1398635
0.2281757 0.4467039 0.1391356
0.2277011 0.4494298 0.1383912
0.2272139 0.452149 0.1376302
0.2267137 0.454861 0.1368527
0.2262004 0.4575659 0.1360586
0.225674 0.4602632 0.1352479
0.2251341 0.4629529 0.1344206
0.2245807 0.4656346 0.1335768
0.2240134 0.4683082 0.1327164
0.2234322 0.4709734 0.1318393
0.2228368 0.4736299 0.1309458
0.2222271 0.4762775 0.1300356
0.2216027 0.478916 0.1291089
0.2209636 0.4815451 0.1281657
0.2203095 0.4841644 0.127206
0.2196401 0.4867739 0.1262298
0.2189553 0.489373 0.1252371
0.2182548 0.4919617 0.124228
0.2175383 0.4945395 0.1232025
0.2168058 0.4971063 0.1221608
0.2160568 0.4996616 0.1211027
0.2152911 0.5022052 0.1200284
0.2145086 0.5047367 0.1189379
0.2137089 0.5072558 0.1178314
0.2128918 0.5097623 0.1167088
0.2120569 0.5122557 0.1155703
0.2112042 0.5147357 0.114416
0.2103332 0.517202 0.113246
0.2094437 0.5196541 0.1120603
0.2085354 0.5220918 0.1108592
0.207608 0.5245147 0.1096427
0.2066612 0.5269223 0.108411
0.2056949 0.5293144 0.1071642
0.2047085 0.5316904 0.1059026
0.2037019 0.53405 0.1046262
0.2026748 0.5363928 0.1033353
0.2016269 0.5387184 0.1020301
0.2005578 0.5410263 0.1007108
0.1994673 0.5433162 0.09937758
0.198355 0.5455875 0.09803075
0.1972206 0.5478399 0.09667056
0.196064 0.5500729 0.09529728
0.1948846 0.5522861 0.09391121
0.1936823 0.5544789 0.09251265
0.1924567 0.556651 0.09110194
0.1912075 0.5588018 0.08967941
0.1899345 0.560931 0.08824545
0.1886373 0.5630379 0.08680042
0.1873156 0.5651222 0.08534474
0.1859692 0.5671834 0.08387883
0.1845977 0.5692209 0.08240313
0.1832009 0.5712343 0.08091811
0.1817786 0.5732231 0.07942426
0.1803303 0.5751869 0.0779221
0.178856 0.577125 0.07641214
0.1773552 0.5790371 0.07489495
0.1758279 0.5809226 0.07337111
0.1742736 0.5827811 0.07184122
0.1726924 0.584612 0.0703059
0.1710838 0.586415 0.0687658
0.1694477 0.5881895 0.06722161
0.1677839 0.589935 0.06567401
0.1660923 0.5916512 0.06412373
0.1643727 0.5933375 0.06257152
0.1626249 0.5949935 0.06101815
0.1608488 0.5966188 0.0594644
0.1590443 0.5982129 0.05791111
0.1572113 0.5997754 0.0563591
0.1553498 0.601306 0.05480925
0.1534596 0.6028043 0.05326244
0.1515408 0.6042699 0.05171958
0.1495934 0.6057024 0.05018159
0.1476173 0.6071016 0.04864943
0.1456126 0.608467 0.04712407
0.1435793 0.6097986 0.04560648
0.1415176 0.6110959 0.04409768
0.1394276 0.6123587 0.04259867
0.1373093 0.6135869 0.0411105
0.135163 0.6147803 0.0396342
0.1329889 0.6159387 0.03817084
0.1307871 0.6170619 0.03672148
0.128558 0.61815 0.03528719
0.1263018 0.6192028 0.03386905
0.1240188 0.6202204 0.03246814
0.1217093 0.6212026 0.03108554
0.1193737 0.6221497 0.02972234
0.1170125 0.6230617 0.0283796
0.114626 0.6239386 0.0270584
0.1122146 0.6247808 0.0257598
0.1097789 0.6255883 0.02448485
0.1073194 0.6263615 0.02323459
0.1048367 0.6271006 0.02201001
0.1023311 0.627806 0.02081213
0.09980346 0.628478 0.01964192
0.09725426 0.6291171 0.01850031
0.09468417 0.6297237 0.01738822
0.09209383 0.6302983 0.01630653
0.08948393 0.6308415 0.01525608
0.08685516 0.6313539 0.01423767
0.08420824 0.6318361 0.01325206
0.0815439 0.6322888 0.01229997
0.07886287 0.6327126 0.01138205
0.07616592 0.6331084 0.01049891
0.07345381 0.6334769 0.009651102
0.07072731 0.6338189 0.008839115
0.0679872 0.6341353 0.008063375
0.06523426 0.6344271 0.007324242
0.06246926 0.634695 0.006622006
0.05969299 0.6349401 0.005956883
0.05690623 0.6351632 0.005329015
0.05410972 0.6353655 0.004738462
0.05130424 0.635548 0.004185203
0.04849052 0.6357116 0.003669132
0.04566929 0.6358574 0.003190055
0.04284125 0.6359864 0.002747685
0.04000711 0.6360998 0.002341642
0.03716751 0.6361985 0.001971447
0.0343231 0.6362838 0.00163652
0.03147448 0.6363565 0.001336176
0.02862224 0.6364178 0.001069621
0.02576691 0.6364687 0.0008359497
0.02290899 0.6365103 0.0006341364
0.02004897 0.6365435 0.0004630344
0.01718726 0.6365694 0.000321368
0.01432425 0.6365888 0.000207726
0.01146028 0.6366027 0.0001205547
0.008595649 0.636612 5.814905e-05
0.005730597 0.6366174 1.864317e-05
0.00286533 0.6366198 0
0 0.6366198 0

LINES 349 1047
2 0 1
2 1 2
2 2 3
2 3 4
2 4 5
2 5 6
2 6 7
2 7 8
2 8 9
2 9 10
2 10 11
2 11 12
2 12 13
2 13 14
2 14 15
2 15 16
2 16 17
2 17 18
2 18 19
2 19 20
2 20 21
2 21 22
2 22 23
2 23 24
2 24 25
2 25 26
2 26 27
2 27 28
2 28 29
2 29 30
2 30 31
2 31 32
2 32 33
2 33 34
2 34 35
2 35 36
2 36 37
2 37 38
2 38 39
2 39 40
2 40 41
2 41 42
2 42 43
2 43 44
2 44 45
2 45 46
2 46 47
2 47 48
2 48 49
2 49 50
2 50 51
2 51 52
2 52 53
2 53 54
2 54 55
2 55 56
2 56 57
2 57 58
2 58 59
2 59 60
2 60 61
2 61 62
2 62 63
2 63 64
2 64 65
2 65 66
2 66 67
2 67 68
2 68 69
2 69 70
2 70 71
2 71 72
2 72 73
2 73 74
2 74 75
2 75 76
2 76 77
2 77 78
2 78 79
2 79 80
2 80 81
2 81 82
2 82 83
2 83 84
2 84 85
2 85 86
2 86 87
2 87 88
2 88 89
2 89 90
2 90 91
2 91 92
2 92 93
2 93 94
2 94 95
2 95 96
2 96 97
2 97 98
2 98 99
2 99 100
2 100 101
2 101 102
2 102 103
2 103 104
2 104 105
2 105 106
2 106 107
2 107 108
2 108 109
2 109 110
2 110 111
2 111 112
2 112 113
2 113 114
2 114 115
2 115 116
2 116 117
2 117 118
2 118 119
2 119 120
2 120 121
2 121 122
2 122 123
2 123 124
2 124 125
2 125 126
2 126 127
2 127 128
2 128 129
2 129 130
2 130 131
2 131 132
2 132 133
2 133 134
2 134 135
2 135 136
2 136 137
2 137 138
2 138 139
2 139 140
2 140 141
2 141 142
2 142 143
2 143 144
2 144 145
2 145 146
2 146 147
2 147 148
2 148 149
2 149 150
2 150 151
2 151 152
2 152 153
2 153 154
2 154 155
2 155 156
2 156 157
2 157 158
2 158 159
2 159 160
2 160 161
2 161 162
2 162 163
2 163 164
2 164 165
2 165 166
2 166 167
2 167 168
2 168 169
2 169 170
2 170 171
2 171 172
2 172 173
2 173 174
2 174 175
2 175 176
2 176 177
2 177 178
2 178 179
2 179 180
2 180 181
2 181 182
2 182 183
2 183 184
2 184 185
2 185 186
2 186 187
2 187 188
2 188 189
2 189 190
2 190 191
2 191 192
2 192 193
2 193 194
2 194 195
2 195 196
2 196 197
2 197 198
2 198 199
2 199 200
2 200 201
2 201 202
2 202 203
2 203 204
2 204 205
2 205 206
2 206 207
2 207 208
2 208 209
2 209 210
2 210 211
2 211 212
2 212 213
2 213 214
2 214 215
2 215 216
2 216 217
2 217 218
2 218 219
2 219 220
2 220 221
2 221 222
2 222 223
2 223 224
2 224 225
2 225 226
2 226 227
2 227 228
2 228 229
2 229 230
2 230 231
2 231 232
2 232 233
2 233 234
2 234 235
2 235 236
2 236 237
2 237 238
2 238 239
2 239 240
2 240 241
2 241 242
2 242 243
2 243 244
2 244 245
2 245 246
2 246 247
2 247 248
2 248 249
2 249 250
2 250 251
2 251 252
2 252 253
2 253 254
2 254 255
2 255 256
2 256 257
2 257 258
2 258 259
2 259 260
2 260 261
2 261 262
2 262 263
2 263 264
2 264 265
2 265 266
2 266 267
2 267 268
2 268 269
2 269 270
2 270 271
2 271 272
2 272 273
2 273 274
2 274 275
2 275 276
2 276 277
2 277 278
2 278 279
2 279 280
2 280 281
2 281 282
2 282 283
2 283 284
2 284 285
2 285 286
2 286 287
2 287 288
2 288 289
2 289 290
2 290 291
2 291 292
2 292 293
2 293 294
2 294 295
2 295 296
2 296 297
2 297 298
2 298 299
2 299 300
2 300 301
2 301 302
2 302 303
2 303 304
2 304 305
2 305 306
2 306 307
2 307 308
2 308 309
2 309 310
2 310 311
2 311 312
2 312 313
2 313 314
2 314 315
2 315 316
2 316 317
2 317 318
2 318 319
2 319 320
2 320 321
2 321 322
2 322 323
2 323 324
2 324 325
2 325 326
2 326 327
2 327 328
2 328 329
2 329 330
2 330 331
2 331 332
2 332 333
2 333 334
2 334 335
2 335 336
2 336 337
2 337 338
2 338 339
2 339 340
2 340 341
2 341 342
2 342 343
2 343 344
2 344 345
2 345 346
2 346 347
2 347 348
2 348 349


POINT_DATA 350
SCALARS a FLOAT 1
LOOKUP_TABLE default
0.0005894628
0.0005894628
0.0005894628
0.0005894628
0.0005894628
0.0005894628
0.0005894628
0.0005894628
0.0005894628
0.0005894628
0.0005894628
0.0005894628
0.0005894628
0.0005894628
0.0005894628
0.0005894628
0.0005894628
0.0005894628
0.0005894628
0.0005894628
0.0005894628
0.0005894628
0.0005894628
0.0005894628
0.0005894628
0.0005894628
0.0005894628
0.0005894628
0.0005894628
0.0005894628
0.0005894628
0.0005894628
0.0005894628
0.0005894628
0.0005894628
0.0005894628
0.0005894628
0.0005894628
0.0005894628
0.0005894628
0.0005894628
0.0005894628
0.0005894628
0.0005894628
0.0005894628
0.0005894628
0.0005894628
0.0005894628
0.0005894628
0.0005894628
0.0005894628
0.0005894628
0.0005894628
0.0005894628
0.0005894628
0.0005894628
0.0005894628
0.0005894628
0.0005894628
0.0005894628
0.0005894628
0.0005894628
0.0005894628
0.0005894628
0.0005894628
0.0005894628
0.0005894628
0.0005894628
0.0005894628
0.0005894628
0.0005894628
0.0005894628
0.0005894628
0.0005894628
0.0005894628
0.0005894628
0.0005894628
0.0005894628
0.0005894628
0.0005894628
0.0005894628
0.0005894628
0.0005894628
0.0005894628
0.0005894628
0.0005894628
0.0005894628
0.0005894628
0.0005894628
0.0005894628
0.0005894628
0.0005894628
0.0005894628
0.0005894628
0.0005894628
0.0005894628
0.0005894628
0.0005894628
0.0005894628
0.0005894628
0.0005894628
0.0005894628
0.0005894628
0.0005894628
0.0005894628
0.0005894628
0.0005894628
0.0005894628
0.0005894628
0.0005894628
0.0005894628
0.0005894628
0.0005894628
0.0005894628
0.0005894628
0.0005894628
0.0005894628
0.0005894628
0.0005894628
0.0005894628
0.0005894628
0.0005894628
0.0005894628
0.0005894628
0.0005894628
0.0005894628
0.0005894628
0.0005894628
0.0005894628
0.0005894628
0.0005894628
0.0005894628
0.0005894628
0.0005894628
0.0005894628
0.0005894628
0.0005894628
0.0005894628
0.0005894628
0.0005894628
0.0005894628
0.0005894628
0.0005894628
0.0005894628
0.0005894628
0.0005894628
0.0005894628
0.0005894628
0.0005894628
0.0005894628
0.0005894628
0.0005894628
0.0005894628
0.0005894628
0.0005894628
0.0005894628
0.0005894628
0.0005894628
0.0005894628
0.0005894628
0.0005894628
0.0005894628
0.0005894628
0.0005894628
0.0005894628
0.0005894628
0.0005894628
0.0005894628
0.0005894628
0.0005894628
0.0005894628
0.0005894628
0.0005894628
0.0005894628
0.0005894628
0.0005894628
0.0005894628
0.0005894628
0.0005894628
0.0005894628
0.0005894628
0.0005894628
0.0005894628
0.0005894628
0.0005894628
0.0005894628
0.0005894628
0.0005894628
0.0005894628
0.0005894628
0.0005894628
0.0005894628
0.0005894628
0.0005894628
0.0005894628
0.0005894628
0.0005894628
0.0005894628
0.0005894628
0.0005894628
0.0005894628
0.0005894628
0.0005894628
0.0005894628
0.0005894628
0.0005894628
0.0005894628
0.0005894628
0.0005894628
0.0005894628
0.0005894628
0.0005894628
0.0005894628
0.0005894628
0.0005894628
0.0005894628
0.0005894628
0.0005894628
0.0005894628
0.0005894628
0.0005894628
0.0005894628
0.0005894628
0.0005894628
0.0005894628
0.0005894628
0.0005894628
0.0005894628
0.0005894628
0.0005894628
0.0005894628
0.0005894628
0.0005894628
0.0005894628
0.0005894628
0.0005894628
0.0005894628
0.0005894628
0.0005894628
0.0005894628
0.0005894628
0.0005894628
0.0005894628
0.0005894628
0.0005894628
0.0005894628
0.0005894628
0.0005894628
0.0005894628
0.0005894628
0.0005894628
0.0005894628
0.0005894628
0.0005894628
0.0005894628
0.0005894628
0.0005894628
0.0005894628
0.0005894628
0.0005894628
0.0005894628
0.0005894628
0.0005894628
0.0005894628
0.0005894628
0.0005894628
0.0005894628
0.0005894628
0.0005894628
0.0005894628
0.0005894628
0.0005894628
0.0005894628
0.0005894628
0.0005894628
0.0005894628
0.0005894628
0.0005894628
0.0005894628
0.0005894628
0.0005894628
0.0005894628
0.0005894628
0.0005894628
0.0005894628
0.0005894628
0.0005894628
0.0005894628
0.0005894628
0.0005894628
0.0005894628
0.0005894628
0.0005894628
0.0005894628
0.0005894628
0.0005894628
0.0005894628
0.0005894628
0.0005894628
0.0005894628
0.0005894628
0.0005894628
0.0005894628
0.0005894628
0.0005894628
0.0005894628
0.0005894628
0.0005894628
0.0005894628
0.0005894628
0.0005894628
0.0005894628
0.0005894628
0.0005894628
0.0005894628
0.0005894628
0.0005894628
0.0005894628
0.0005894628
0.0005894628
0.0005894628
0.0005894628
0.0005894628
0.0005894628
0.0005894628
0.0005894628
0.0005894628
0.0005894628
0.0005894628
0.0005894628
0.0005894628
0.0005894628
0.0005894628
0.0005894628
0.0005894628
0.0005894628
0.0005894628
0.0005894628
0.0005894628
0.0005894628
0.0005894628
0.0005894628
0.0005894628
0.0005894628
0.0005894628
0.0005894628
0.0005894628
0.0005894628
0.0005894628
0.0005894628


SCALARS b FLOAT 1
LOOKUP_TABLE default
0.02357851
0.02357851
0.02357851
0.02357851
0.02357851
0.02357851
0.02357851
0.02357851
0.02357851
0.02357851
0.02357851
0.02357851
0.02357851
0.02357851
0.02357851
0.02357851
0.02357851
0.02357851
0.02357851
0.02357851
0.02357851
0.02357851
0.02357851
0.02357851
0.02357851
0.02357851
0.02357851
0.02357851
0.02357851
0.02357851
0.02357851
0.02357851
0.02357851
0.02357851
0.02357851
0.02357851
0.02357851
0.02357851
0.02357851
0.02357851
0.02357851
0.02357851
0.02357851
0.02357851
0.02357851
0.02357851
0.02357851
0.02357851
0.02357851
0.02357851
0.02357851
0.02357851
0.02357851
0.02357851
0.02357851
0.02357851
0.02357851
0.02357851
0.02357851
0.02357851
0.02357851
0.02357851
0.02357851
0.02357851
0.02357851
0.02357851
0.02357851
0.02357851
0.02357851
0.02357851
0.02357851
0.02357851
0.02357851
0.02357851
0.02357851
0.02357851
0.02357851
0.02357851
0.02357851
0.02357851
0.02357851
0.02357851
0.02357851
0.02357851
0.02357851
0.02357851
0.02357851
0.02357851
0.02357851
0.02357851
0.02357851
0.02357851
0.02357851
0.02357851
0.02357851
0.02357851
0.02357851
0.02357851
0.02357851
0.02357851
0.02357851
0.02357851
0.02357851
0.02357851
0.02357851
0.02357851
0.02357851
0.02357851
0.02357851
0.02357851
0.02357851
0.02357851
0.02357851
0.02357851
0.02357851
0.02357851
0.02357851
0.02357851
0.02357851
0.02357851
0.02357851
0.02357851
0.02357851
0.02357851
0.02357851
0.02357851
0.02357851
0.02357851
0.02357851
0.02357851
0.02357851
0.02357851
0.02357851
0.02357851
0.02357851
0.02357851
0.02357851
0.02357851
0.02357851
0.02357851
0.02357851
0.02357851
0.02357851
0.02357851
0.02357851
0.02357851
0.02357851
0.02357851
0.02357851
0.02357851
0.02357851
0.02357851
0.02357851
0.02357851
0.02357851
0.02357851
0.02357851
0.02357851
0.02357851
0.02357851
0.02357851
0.02357851
0.02357851
0.02357851
0.02357851
0.02357851
0.02357851
0.02357851
0.02357851
0.02357851
0.02357851
0.02357851
0.02357851
0.02357851
0.02357851
0.02357851
0.02357851
0.02357851
0.02357851
0.02357851
0.02357851
0.02357851
0.02357851
0.02357851
0.02357851
0.02357851
0.02357851
0.02357851
0.02357851
0.02357851
0.02357851
0.02357851
0.02357851
0.02357851
0.02357851
0.02357851
0.02357851
0.02357851
0.02357851
0.02357851
0.02357851
0.02357851
0.02357851
0.02357851
0.02357851
0.02357851
0.02357851
0.02357851
0.02357851
0.02357851
0.02357851
0.02357851
0.02357851
0.02357851
0.02357851
0.02357851
0.02357851
0.02357851
0.02357851
0.02357851
0.02357851
0.02357851
0.02357851
0.02357851
0.02357851
0.02357851
0.02357851
0.02357851
0.02357851
0.02357851
0.02357851
0.02357851
0.02357851
0.02357851
0.02357851
0.02357851
0.02357851
0.02357851
0.02357851
0.02357851
0.02357851
0.02357851
0.02357851
0.02357851
0.02357851
0.02357851
0.02357851
0.02357851
0.02357851
0.02357851
0.02357851
0.02357851
0.02357851
0.02357851
0.02357851
0.02357851
0.02357851
0.02357851
0.02357851
0.02357851
0.02357851
0.02357851
0.02357851
0.02357851
0.02357851
0.02357851
0.02357851
0.02357851
0.02357851
0.02357851
0.02357851
0.02357851
0.02357851
0.02357851
0.02357851
0.02357851
0.02357851
0.02357851
0.02357851
0.02357851
0.02357851
0.02357851
0.02357851
0.02357851
0.02357851
0.02357851
0.02357851
0.02357851
0.02357851
0.02357851
0.02357851
0.02357851
0.02357851
0.02357851
0.02357851
0.02357851
0.02357851
0.02357851
0.02357851
0.02357851
0.02357851
0.02357851
0.02357851
0.02357851
0.02357851
0.02357851
0.02357851
0.02357851
0.02357851
0.02357851
0.02357851
0.02357851
0.02357851
0.02357851
0.02357851
0.02357851
0.02357851
0.02357851
0.02357851
0.02357851
0.02357851
0.02357851
0.02357851
0.02357851
0.02357851
0.02357851
0.02357851
0.02357851
0.02357851
0.02357851
0.02357851
0.02357851
0.02357851
0.02357851
0.02357851
0.02357851
0.02357851
0.02357851
0.02357851
0.02357851
0.02357851
0.02357851
0.02357851
0.02357851
0.02357851
0.02357851
0.02357851
0.02357851
0.02357851
0.02357851


VECTORS d1 FLOAT
0 0.1128564 0.9936113
-0.006558521 0.1326795 0.9911373
-0.01391538 0.1524771 0.988209
-0.02201068 0.1722338 0.9848102
-0.0307886 0.1919324 0.9809251
-0.04019705 0.2115548 0.9765392
-0.0501873 0.2310818 0.971639
-0.06071362 0.2504937 0.9662126
-0.07173284 0.2697704 0.9602491
-0.08320404 0.2888913 0.9537394
-0.09508829 0.3078359 0.9466759
-0.1073483 0.3265835 0.9390525
-0.1199484 0.3451137 0.9308646
-0.132854 0.3634061 0.9221095
-0.146032 0.3814407 0.9127857
-0.1594501 0.3991979 0.9028935
-0.1730773 0.4166586 0.8924348
-0.1868831 0.433804 0.8814129
-0.2008383 0.4506162 0.8698328
-0.2149143 0.4670778 0.8577005
-0.2290833 0.483172 0.845024
-0.2433185 0.4988831 0.8318123
-0.2575937 0.5141959 0.8180758
-0.2718836 0.5290963 0.8038261
-0.2861636 0.543571 0.789076
-0.3004102 0.5576075 0.7738395
-0.3146004 0.5711945 0.7581315
-0.3287123 0.5843217 0.7419679
-0.3427246 0.5969795 0.7253656
-0.356617 0.6091597 0.7083423
-0.3703703 0.6208549 0.6909161
-0.3839658 0.6320587 0.6731063
-0.3973859 0.6427659 0.6549323
-0.4106141 0.6529723 0.6364143
-0.4236346 0.6626746 0.6175728
-0.4364325 0.6718705 0.5984285
-0.4489941 0.6805588 0.5790027
-0.4613063 0.6887392 0.5593164
-0.4733572 0.6964123 0.5393912
-0.4851357 0.7035797 0.5192484
-0.4966318 0.7102438 0.4989094
-0.5078361 0.7164078 0.4783956
-0.5187405 0.7220758 0.4577279
-0.5293374 0.7272526 0.4369274
-0.5396204 0.7319438 0.4160146
-0.5495836 0.7361555 0.3950099
-0.5592224 0.7398947 0.3739333
-0.5685326 0.7431689 0.3528041
-0.5775109 0.7459859 0.3316416
-0.5861549 0.7483544 0.3104642
-0.5944628 0.7502834 0.2892901
-0.6024335 0.7517823 0.2681366
-0.6100667 0.7528608 0.2470208
-0.6173625 0.7535291 0.2259589
-0.6243219 0.7537977 0.2049666
-0.6309462 0.7536771 0.184059
-0.6372375 0.7531783 0.1632506
-0.6431983 0.7523124 0.1425549
-0.6488316 0.7510906 0.1219853
-0.6541409 0.7495241 0.1015541
-0.65913 0.7476244 0.08127301
-0.6638033 0.7454029 0.0611533
-0.6681653 0.742871 0.04120538
-0.672221 0.7400401 0.02143909
-0.6759758 0.7369215 0.001863612
-0.6794351 0.7335266 -0.01751248
-0.6826049 0.7298664 -0.03668124
-0.6854911 0.7259522 -0.05563531
-0.6881001 0.7217948 -0.07436794
-0.6904381 0.717405 -0.09287293
-0.6925118 0.7127933 -0.1111446
-0.6943279 0.7079702 -0.129178
-0.6958931 0.702946 -0.1469683
-0.6972145 0.6977305 -0.1645116
-0.6982989 0.6923336 -0.1818043
-0.6991535 0.6867648 -0.1988431
-0.6997851 0.6810333 -0.2156255
-0.700201 0.6751484 -0.232149
-0.7004083 0.6691186 -0.2484119
-0.7004139 0.6629527 -0.2644127
-0.700225 0.6566588 -0.2801502
-0.6998486 0.650245 -0.2956237
-0.6992917 0.643719 -0.3108326
-0.6985613 0.6370883 -0.3257769
-0.6976641 0.6303602 -0.3404568
-0.696607 0.6235417 -0.3548725
-0.6953967 0.6166393 -0.3690249
-0.6940399 0.6096596 -0.3829147
-0.6925432 0.6026088 -0.3965433
-0.6909129 0.5954928 -0.4099118
-0.6891554 0.5883173 -0.4230219
-0.6872771 0.5810877 -0.4358753
-0.6852839 0.5738093 -0.4484738
-0.6831821 0.566487 -0.4608196
-0.6809774 0.5591256 -0.4729148
-0.6786757 0.5517296 -0.4847616
-0.6762826 0.5443032 -0.4963626
-0.6738039 0.5368506 -0.5077202
-0.6712448 0.5293757 -0.518837
-0.6686107 0.521882 -0.5297159
-0.6659068 0.5143732 -0.5403594
-0.6631383 0.5068525 -0.5507705
-0.66031 0.4993229 -0.5609521
-0.6574269 0.4917874 -0.5709072
-0.6544936 0.4842489 -0.5806386
-0.6515148 0.4767097 -0.5901494
-0.6484949 0.4691725 -0.5994427
-0.6454383 0.4616394 -0.6085215
-0.6423493 0.4541125 -0.617389
-0.6392321 0.4465939 -0.6260481
-0.6360906 0.4390854 -0.634502
-0.6329288 0.4315886 -0.6427537
-0.6297506 0.4241052 -0.6508064
-0.6265595 0.4166366 -0.6586631
-0.6233593 0.4091842 -0.6663269
-0.6201534 0.4017491 -0.6738007
-0.6169453 0.3943324 -0.6810877
-0.6137382 0.3869353 -0.6881908
-0.6105353 0.3795585 -0.6951129
-0.6073398 0.372203 -0.701857
-0.6041548 0.3648693 -0.708426
-0.600983 0.3575583 -0.7148227
-0.5978274 0.3502704 -0.72105
-0.5946908 0.3430061 -0.7271105
-0.5915757 0.3357658 -0.7330072
-0.5884848 0.3285498 -0.7387426
-0.5854206 0.3213584 -0.7443195
-0.5823856 0.3141919 -0.7497403
-0.579382 0.3070503 -0.7550077
-0.5764122 0.2999338 -0.7601242
-0.5734783 0.2928423 -0.7650921
-0.5705826 0.2857758 -0.7699141
-0.567727 0.2787343 -0.7745923
-0.5649136 0.2717177 -0.7791291
-0.5621443 0.2647258 -0.7835267
-0.5594209 0.2577583 -0.7877873
-0.5567454 0.250815 -0.7919131
-0.5541193 0.2438958 -0.7959062
-0.5515444 0.2370001 -0.7997686
-0.5490222 0.2301277 -0.8035022
-0.5465545 0.2232783 -0.807109
-0.5441426 0.2164513 -0.8105909
-0.5417881 0.2096464 -0.8139497
-0.5394922 0.2028631 -0.8171871
-0.5372565 0.196101 -0.8203048
-0.535082 0.1893594 -0.8233045
-0.5329702 0.1826379 -0.8261877
-0.5309221 0.1759359 -0.8289561
-0.528939 0.1692529 -0.8316111
-0.5270219 0.1625883 -0.834154
-0.5251718 0.1559415 -0.8365864
-0.5233898 0.1493118 -0.8389094
-0.5216769 0.1426986 -0.8411245
-0.5200338 0.1361014 -0.8432326
-0.5184615 0.1295193 -0.8452351
-0.5169608 0.1229519 -0.847133
-0.5155325 0.1163984 -0.8489273
-0.5141773 0.109858 -0.8506191
-0.512896 0.1033302 -0.8522092
-0.511689 0.09681424 -0.8536986
-0.5105571 0.09030938 -0.8550881
-0.5095009 0.08381491 -0.8563784
-0.5085208 0.07733013 -0.8575702
-0.5076173 0.07085431 -0.8586643
-0.5067909 0.06438671 -0.8596612
-0.506042 0.05792661 -0.8605615
-0.5053709 0.05147326 -0.8613656
-0.504778 0.04502592 -0.8620741
-0.5042636 0.03858384 -0.8626874
-0.5038279 0.03214629 -0.8632057
-0.5034712 0.0257125 -0.8636293
-0.5031935 0.01928174 -0.8639586
-0.5029951 0.01285323 -0.8641937
-0.502876 0.006426238 -0.8643347
-0.5028363 -1.225664e-11 -0.8643817
-0.502876 -0.006426239 -0.8643347
-0.5029951 -0.01285323 -0.8641937
-0.5031935 -0.01928174 -0.8639586
-0.5034712 -0.0257125 -0.8636293
-0.5038279 -0.03214629 -0.8632057
-0.5042636 -0.03858384 -0.8626874
-0.504778 -0.04502592 -0.8620741
-0.5053709 -0.05147326 -0.8613656
-0.506042 -0.05792661 -0.8605615
-0.5067909 -0.06438671 -0.8596612
-0.5076173 -0.07085431 -0.8586643
-0.5085208 -0.07733013 -0.8575702
-0.5095009 -0.08381491 -0.8563784
-0.5105571 -0.09030938 -0.8550881
-0.511689 -0.09681424 -0.8536986
-0.512896 -0.1033302 -0.8522092
-0.5141773 -0.109858 -0.8506191
-0.5155325 -0.1163984 -0.8489273
-0.5169608 -0.1229519 -0.847133
-0.5184615 -0.1295193 -0.8452351
-0.5200338 -0.1361014 -0.8432326
-0.5216769 -0.1426986 -0.8411245
-0.5233898 -0.1493118 -0.8389094
-0.5251718 -0.1559415 -0.8365864
-0.5270219 -0.1625883 -0.834154
-0.528939 -0.1692529 -0.8316111
-0.5309221 -0.1759359 -0.8289561
-0.5329702 -0.1826379 -0.8261877
-0.535082 -0.1893594 -0.8233045
-0.5372565 -0.196101 -0.8203048
-0.5394922 -0.2028631 -0.8171871
-0.5417881 -0.2096464 -0.8139497
-0.5441426 -0.2164513 -0.8105909
-0.5465545 -0.2232783 -0.807109
-0.5490222 -0.2301277 -0.8035022
-0.5515444 -0.2370001 -0.7997686
-0.5541193 -0.2438958 -0.7959062
-0.5567454 -0.250815 -0.7919131
-0.5594209 -0.2577583 -0.7877873
-0.5621443 -0.2647258 -0.7835267
-0.5649136 -0.2717177 -0.7791291
-0.567727 -0.2787343 -0.7745923
-0.5705826 -0.2857758 -0.7699141
-0.5734783 -0.2928423 -0.7650921
-0.5764122 -0.2999338 -0.7601242
-0.579382 -0.3070503 -0.7550077
-0.5823856 -0.3141919 -0.7497403
-0.5854206 -0.3213584 -0.7443195
-0.5884848 -0.3285498 -0.7387426
-0.5915757 -0.3357658 -0.7330072
-0.5946908 -0.3430061 -0.7271105
-0.5978274 -0.3502704 -0.72105
-0.600983 -0.3575583 -0.7148227
-0.6041548 -0.3648693 -0.708426