# vtk DataFile Version 2.0
Written badly by Kevin Korner
ASCII
DATASET POLYDATA
POINTS 350 FLOAT
0 0 0
0.00286533 0 0
0.005730489 1.373222e-05 2.806682e-05
0.008595127 4.183297e-05 8.438351e-05
0.01145888 8.493428e-05 0.000169098
0.01432137 0.0001436628 0.0002823238
0.0171822 0.0002186386 0.0004241402
0.02004098 0.0003104743 0.0005945935
0.0228973 0.0004197737 0.0007936973
0.02575072 0.0005471313 0.001021433
0.02860083 0.0006931309 0.001277751
0.03144717 0.0008583448 0.001562571
0.03428932 0.001043333 0.001875783
0.03712681 0.001248644 0.002217247
0.0399592 0.00147481 0.002586798
0.04278601 0.00172235 0.00298424
0.04560679 0.001991769 0.003409352
0.04842107 0.002283554 0.003861887
0.05122839 0.002598178 0.004341575
0.05402827 0.002936095 0.004848119
0.05682025 0.003297745 0.005381201
0.05960386 0.003683547 0.005940483
0.06237863 0.004093905 0.006525601
0.0651441 0.004529202 0.007136174
0.06789981 0.004989805 0.007771803
0.0706453 0.005476061 0.008432067
0.07338012 0.005988298 0.009116532
0.07610382 0.006526826 0.009824744
0.07881596 0.007091934 0.01055624
0.08151609 0.007683894 0.01131053
0.0842038 0.008302958 0.01208712
0.08687866 0.008949358 0.0128855
0.08954025 0.009623308 0.01370516
0.09218816 0.010325 0.01454557
0.09482201 0.01105462 0.01540618
0.09744139 0.01181231 0.01628644
0.1000459 0.01259822 0.0171858
0.1026352 0.01341247 0.0181037
0.105209 0.01425516 0.01903956
0.1077668 0.01512637 0.01999281
0.1103083 0.01602618 0.02096287
0.1128333 0.01695463 0.02194916
0.1153413 0.01791175 0.02295108
0.1178321 0.01889757 0.02396806
0.1203054 0.01991208 0.02499949
0.1227608 0.02095527 0.02604479
0.1251982 0.02202711 0.02710336
0.1276172 0.02312756 0.02817462
0.1300175 0.02425655 0.02925797
0.1323991 0.02541402 0.03035282
0.1347615 0.02659988 0.0314586
0.1371046 0.02781402 0.03257471
0.1394283 0.02905634 0.03370057
0.1417321 0.03032672 0.03483561
0.1440161 0.03162501 0.03597926
0.14628 0.03295107 0.03713095
0.1485237 0.03430475 0.03829011
0.150747 0.03568587 0.0394562
0.1529497 0.03709426 0.04062865
0.1551317 0.03852973 0.04180692
0.1572929 0.03999209 0.04299048
0.1594332 0.04148113 0.0441788
0.1615524 0.04299663 0.04537134
0.1636505 0.04453839 0.04656759
0.1657274 0.04610617 0.04776705
0.167783 0.04769973 0.04896921
0.1698172 0.04931885 0.05017357
0.17183 0.05096327 0.05137966
0.1738214 0.05263274 0.05258699
0.1757911 0.05432701 0.0537951
0.1777394 0.05604582 0.05500351
0.179666 0.05778889 0.05621179
0.181571 0.05955597 0.05741949
0.1834543 0.06134677 0.05862617
0.1853161 0.06316103 0.0598314
0.1871561 0.06499846 0.06103477
0.1889746 0.06685878 0.06223588
0.1907713 0.06874171 0.06343431
0.1925465 0.07064696 0.06462967
0.1943001 0.07257424 0.0658216
0.1960321 0.07452327 0.0670097
0.1977425 0.07649375 0.06819362
0.1994315 0.07848539 0.06937299
0.201099 0.0804979 0.07054748
0.202745 0.08253098 0.07171673
0.2043697 0.08458435 0.07288041
0.2059731 0.08665771 0.07403821
0.2075552 0.08875076 0.07518981
0.2091161 0.09086322 0.0763349
0.2106559 0.09299478 0.07747317
0.2121746 0.09514517 0.07860434
0.2136723 0.09731408 0.07972812
0.215149 0.09950122 0.08084424
0.2166049 0.1017063 0.08195242
0.21804 0.1039291 0.08305241
0.2194544 0.1061692 0.08414394
0.2208482 0.1084264 0.08522677
0.2222214 0.1107004 0.08630067
0.2235741 0.1129909 0.08736538
0.2249065 0.1152977 0.0884207
0.2262186 0.1176204 0.08946638
0.2275105 0.1199589 0.09050223
0.2287823 0.1223127 0.09152803
0.230034 0.1246816 0.09254357
0.2312658 0.1270654 0.09354867
0.2324778 0.1294638 0.09454312
0.23367 0.1318766 0.09552675
0.2348425 0.1343034 0.09649937
0.2359955 0.1367439 0.0974608
0.2371289 0.1391981 0.09841089
0.238243 0.1416655 0.09934946
0.2393378 0.1441459 0.1002764
0.2404133 0.1466391 0.1011914
0.2414697 0.1491447 0.1020945
0.2425071 0.1516627 0.1029855
0.2435256 0.1541927 0.1038641
0.2445252 0.1567344 0.1047304
0.245506 0.1592877 0.1055842
0.2464682 0.1618523 0.1064252
0.2474117 0.1644279 0.1072535
0.2483368 0.1670143 0.1080689
0.2492434 0.1696113 0.1088713
0.2501317 0.1722186 0.1096605
0.2510017 0.1748361 0.1104364
0.2518536 0.1774634 0.111199
0.2526874 0.1801004 0.1119482
0.2535031 0.1827468 0.1126838
0.2543009 0.1854025 0.1134057
0.2550809 0.1880671 0.1141139
0.2558431 0.1907405 0.1148082
0.2565876 0.1934224 0.1154886
0.2573144 0.1961127 0.116155
0.2580237 0.1988112 0.1168073
0.2587155 0.2015175 0.1174455
0.2593899 0.2042316 0.1180694
0.2600469 0.2069531 0.1186789
0.2606866 0.209682 0.1192741
0.2613092 0.2124179 0.1198548
0.2619145 0.2151607 0.120421
0.2625028 0.2179102 0.1209726
0.263074 0.2206662 0.1215096
0.2636282 0.2234285 0.1220318
0.2641655 0.2261969 0.1225393
0.264686 0.2289712 0.1230319
0.2651896 0.2317511 0.1235096
0.2656765 0.2345366 0.1239725
0.2661466 0.2373274 0.1244203
0.2666001 0.2401233 0.1248531
0.267037 0.2429242 0.1252709
0.2674573 0.2457297 0.1256735
0.2678611 0.2485399 0.126061
0.2682484 0.2513544 0.1264333
0.2686193 0.2541731 0.1267903
0.2689738 0.2569958 0.1271321
0.2693119 0.2598223 0.1274586
0.2696336 0.2626525 0.1277697
0.2699391 0.2654861 0.1280654
0.2702283 0.268323 0.1283458
0.2705013 0.2711629 0.1286107
0.270758 0.2740058 0.1288602
0.2709986 0.2768514 0.1290942
0.271223 0.2796996 0.1293128
0.2714313 0.2825501 0.1295158
0.2716235 0.2854028 0.1297032
0.2717996 0.2882576 0.1298751
0.2719597 0.2911142 0.1300314
0.2721036 0.2939724 0.1301721
0.2722316 0.2968321 0.1302973
0.2723435 0.2996932 0.1304068
0.2724394 0.3025554 0.1305007
0.2725193 0.3054185 0.1305789
0.2725832 0.3082825 0.1306415
0.2726312 0.311147 0.1306885
0.2726631 0.314012 0.1307198
0.2726791 0.3168772 0.1307355
0.2726791 0.3197426 0.1307355
0.2726631 0.3226078 0.1307198
0.2726312 0.3254728 0.1306885
0.2725832 0.3283373 0.1306415
0.2725193 0.3312012 0.1305789
0.2724394 0.3340644 0.1305007
0.2723435 0.3369266 0.1304068
0.2722316 0.3397876 0.1302973
0.2721036 0.3426474 0.1301721
0.2719597 0.3455056 0.1300314
0.2717996 0.3483622 0.1298751
0.2716235 0.3512169 0.1297032
0.2714313 0.3540697 0.1295158
0.271223 0.3569202 0.1293128
0.2709986 0.3597683 0.1290942
0.270758 0.362614 0.1288602
0.2705013 0.3654568 0.1286107
0.2702283 0.3682968 0.1283458
0.2699391 0.3711337 0.1280654
0.2696336 0.3739673 0.1277697
0.2693119 0.3767974 0.1274586
0.2689738 0.379624 0.1271321
0.2686193 0.3824467 0.1267903
0.2682484 0.3852654 0.1264333
0.2678611 0.3880799 0.126061
0.2674573 0.39089 0.1256735
0.267037 0.3936956 0.1252709
0.2666001 0.3964965 0.1248531
0.2661466 0.3992924 0.1244203
0.2656765 0.4020832 0.1239725
0.2651896 0.4048686 0.1235096
0.264686 0.4076486 0.1230319
0.2641655 0.4104229 0.1225393
0.2636282 0.4131912 0.1220318
0.263074 0.4159535 0.1215096
0.2625028 0.4187095 0.1209726
0.2619145 0.421459 0.120421
0.2613092 0.4242019 0.1198548
0.2606866 0.4269378 0.1192741
0.2600469 0.4296667 0.1186789
0.2593899 0.4323882 0.1180694
0.2587155 0.4351023 0.1174455
0.2580237 0.4378086 0.1168073
0.2573144 0.440507 0.116155
0.2565876 0.4431973 0.1154886
0.2558431 0.4458793 0.1148082
0.2550809 0.4485527 0.1141139
0.2543009 0.4512173 0.1134057
0.2535031 0.453873 0.1126838
0.2526874 0.4565194 0.1119482
0.2518536 0.4591564 0.111199
0.2510017 0.4617837 0.1104364
0.2501317 0.4644012 0.1096605
0.2492434 0.4670085 0.1088713
0.2483368 0.4696055 0.1080689
0.2474117 0.4721919 0.1072535
0.2464682 0.4747675 0.1064252
0.245506 0.4773321 0.1055842
0.2445252 0.4798853 0.1047304
0.2435256 0.4824271 0.1038641
0.2425071 0.4849571 0.1029855
0.2414697 0.487475 0.1020945
0.2404133 0.4899807 0.1011914
0.2393378 0.4924739 0.1002764
0.238243 0.4949543 0.09934946
0.2371289 0.4974217 0.09841089
0.2359955 0.4998758 0.0974608
0.2348425 0.5023164 0.09649937
0.23367 0.5047432 0.09552675
0.2324778 0.5071559 0.09454312
0.2312658 0.5095543 0.09354867
0.230034 0.5119382 0.09254357
0.2287823 0.5143071 0.09152803
0.2275105 0.5166609 0.09050223
0.2262186 0.5189993 0.08946638
0.2249065 0.5213221 0.0884207
0.2235741 0.5236288 0.08736538
0.2222214 0.5259194 0.08630067
0.2208482 0.5281934 0.08522677
0.2194544 0.5304506 0.08414394
0.21804 0.5326907 0.08305241
0.2166049 0.5349135 0.08195242
0.215149 0.5371185 0.08084424
0.2136723 0.5393057 0.07972812
0.2121746 0.5414746 0.07860434
0.2106559 0.543625 0.07747317
0.2091161 0.5457566 0.0763349
0.2075552 0.547869 0.07518981
0.2059731 0.5499621 0.07403821
0.2043697 0.5520354 0.07288041
0.202745 0.5540888 0.07171673
0.201099 0.5561219 0.07054748
0.1994315 0.5581344 0.06937299
0.1977425 0.560126 0.06819362
0.1960321 0.5620965 0.0670097
0.1943001 0.5640455 0.0658216
0.1925465 0.5659728 0.06462967
0.1907713 0.5678781 0.06343431
0.1889746 0.569761 0.06223588
0.1871561 0.5716213 0.06103477
0.1853161 0.5734587 0.0598314
0.1834543 0.575273 0.05862617
0.181571 0.5770638 0.05741949
0.179666 0.5788309 0.05621179
0.1777394 0.580574 0.05500351
0.1757911 0.5822928 0.0537951
0.1738214 0.583987 0.05258699
0.17183 0.5856565 0.05137966
0.1698172 0.5873009 0.05017357
0.167783 0.58892 0.04896921
0.1657274 0.5905136 0.04776705
0.1636505 0.5920814 0.04656759
0.1615524 0.5936231 0.04537134
0.1594332 0.5951386 0.0441788
0.1572929 0.5966277 0.04299048
0.1551317 0.59809 0.04180692
0.1529497 0.5995255 0.04062865
0.150747 0.6009339 0.0394562
0.1485237 0.602315 0.03829011
0.14628 0.6036687 0.03713095
0.1440161 0.6049948 0.03597926
0.1417321 0.6062931 0.03483561
0.1394283 0.6075634 0.03370057
0.1371046 0.6088058 0.03257471
0.1347615 0.6100199 0.0314586
0.1323991 0.6112058 0.03035282
0.1300175 0.6123632 0.02925797
0.1276172 0.6134922 0.02817462
0.1251982 0.6145927 0.02710336
0.1227608 0.6156645 0.02604479
0.1203054 0.6167077 0.02499949
0.1178321 0.6177222 0.02396806
0.1153413 0.618708 0.02295108
0.1128333 0.6196651 0.02194916
0.1103083 0.6205936 0.02096287
0.1077668 0.6214934 0.01999281
0.105209 0.6223646 0.01903956
0.1026352 0.6232073 0.0181037
0.1000459 0.6240215 0.0171858
0.09744139 0.6248075 0.01628644
0.09482201 0.6255652 0.01540618
0.09218816 0.6262948 0.01454557
0.08954025 0.6269965 0.01370516
0.08687866 0.6276704 0.0128855
0.0842038 0.6283168 0.01208712
0.08151609 0.6289359 0.01131053
0.07881596 0.6295278 0.01055624
0.07610382 0.6300929 0.009824744
0.07338012 0.6306315 0.009116532
0.0706453 0.6311437 0.008432067
0.06789981 0.63163 0.007771803
0.0651441 0.6320906 0.007136174
0.06237863 0.6325259 0.006525601
0.05960386 0.6329362 0.005940483
0.05682025 0.633322 0.005381201
0.05402827 0.6336837 0.004848119
0.05122839 0.6340216 0.004341575
0.04842107 0.6343362 0.003861887
0.04560679 0.634628 0.003409352
0.04278601 0.6348974 0.00298424
0.0399592 0.635145 0.002586798
0.03712681 0.6353711 0.002217247
0.03428932 0.6355764 0.001875783
0.03144717 0.6357614 0.001562571
0.02860083 0.6359266 0.001277751
0.02575072 0.6360726 0.001021433
0.0228973 0.6362 0.0007936973
0.02004098 0.6363093 0.0005945935
0.0171822 0.6364011 0.0004241402
0.01432137 0.6364761 0.0002823238
0.01145888 0.6365348 0.000169098
0.008595127 0.6365779 8.438351e-05
0.005730489 0.636606 2.806682e-05
0.00286533 0.6366198 0
0 0.6366198 0

LINES 349 1047
2 0 1
2 1 2
2 2 3
2 3 4
2 4 5
2 5 6
2 6 7
2 7 8
2 8 9
2 9 10
2 10 11
2 11 12
2 12 13
2 13 14
2 14 15
2 15 16
2 16 17
2 17 18
2 18 19
2 19 20
2 20 21
2 21 22
2 22 23
2 23 24
2 24 25
2 25 26
2 26 27
2 27 28
2 28 29
2 29 30
2 30 31
2 31 32
2 32 33
2 33 34
2 34 35
2 35 36
2 36 37
2 37 38
2 38 39
2 39 40
2 40 41
2 41 42
2 42 43
2 43 44
2 44 45
2 45 46
2 46 47
2 47 48
2 48 49
2 49 50
2 50 51
2 51 52
2 52 53
2 53 54
2 54 55
2 55 56
2 56 57
2 57 58
2 58 59
2 59 60
2 60 61
2 61 62
2 62 63
2 63 64
2 64 65
2 65 66
2 66 67
2 67 68
2 68 69
2 69 70
2 70 71
2 71 72
2 72 73
2 73 74
2 74 75
2 75 76
2 76 77
2 77 78
2 78 79
2 79 80
2 80 81
2 81 82
2 82 83
2 83 84
2 84 85
2 85 86
2 86 87
2 87 88
2 88 89
2 89 90
2 90 91
2 91 92
2 92 93
2 93 94
2 94 95
2 95 96
2 96 97
2 97 98
2 98 99
2 99 100
2 100 101
2 101 102
2 102 103
2 103 104
2 104 105
2 105 106
2 106 107
2 107 108
2 108 109
2 109 110
2 110 111
2 111 112
2 112 113
2 113 114
2 114 115
2 115 116
2 116 117
2 117 118
2 118 119
2 119 120
2 120 121
2 121 122
2 122 123
2 123 124
2 124 125
2 125 126
2 126 127
2 127 128
2 128 129
2 129 130
2 130 131
2 131 132
2 132 133
2 133 134
2 134 135
2 135 136
2 136 137
2 137 138
2 138 139
2 139 140
2 140 141
2 141 142
2 142 143
2 143 144
2 144 145
2 145 146
2 146 147
2 147 148
2 148 149
2 149 150
2 150 151
2 151 152
2 152 153
2 153 154
2 154 155
2 155 156
2 156 157
2 157 158
2 158 159
2 159 160
2 160 161
2 161 162
2 162 163
2 163 164
2 164 165
2 165 166
2 166 167
2 167 168
2 168 169
2 169 170
2 170 171
2 171 172
2 172 173
2 173 174
2 174 175
2 175 176
2 176 177
2 177 178
2 178 179
2 179 180
2 180 181
2 181 182
2 182 183
2 183 184
2 184 185
2 185 186
2 186 187
2 187 188
2 188 189
2 189 190
2 190 191
2 191 192
2 192 193
2 193 194
2 194 195
2 195 196
2 196 197
2 197 198
2 198 199
2 199 200
2 200 201
2 201 202
2 202 203
2 203 204
2 204 205
2 205 206
2 206 207
2 207 208
2 208 209
2 209 210
2 210 211
2 211 212
2 212 213
2 213 214
2 214 215
2 215 216
2 216 217
2 217 218
2 218 219
2 219 220
2 220 221
2 221 222
2 222 223
2 223 224
2 224 225
2 225 226
2 226 227
2 227 228
2 228 229
2 229 230
2 230 231
2 231 232
2 232 233
2 233 234
2 234 235
2 235 236
2 236 237
2 237 238
2 238 239
2 239 240
2 240 241
2 241 242
2 242 243
2 243 244
2 244 245
2 245 246
2 246 247
2 247 248
2 248 249
2 249 250
2 250 251
2 251 252
2 252 253
2 253 254
2 254 255
2 255 256
2 256 257
2 257 258
2 258 259
2 259 260
2 260 261
2 261 262
2 262 263
2 263 264
2 264 265
2 265 266
2 266 267
2 267 268
2 268 269
2 269 270
2 270 271
2 271 272
2 272 273
2 273 274
2 274 275
2 275 276
2 276 277
2 277 278
2 278 279
2 279 280
2 280 281
2 281 282
2 282 283
2 283 284
2 284 285
2 285 286
2 286 287
2 287 288
2 288 289
2 289 290
2 290 291
2 291 292
2 292 293
2 293 294
2 294 295
2 295 296
2 296 297
2 297 298
2 298 299
2 299 300
2 300 301
2 301 302
2 302 303
2 303 304
2 304 305
2 305 306
2 306 307
2 307 308
2 308 309
2 309 310
2 310 311
2 311 312
2 312 313
2 313 314
2 314 315
2 315 316
2 316 317
2 317 318
2 318 319
2 319 320
2 320 321
2 321 322
2 322 323
2 323 324
2 324 325
2 325 326
2 326 327
2 327 328
2 328 329
2 329 330
2 330 331
2 331 332
2 332 333
2 333 334
2 334 335
2 335 336
2 336 337
2 337 338
2 338 339
2 339 340
2 340 341
2 341 342
2 342 343
2 343 344
2 344 345
2 345 346
2 346 347
2 347 348
2 348 349


POINT_DATA 350
SCALARS a FLOAT 1
LOOKUP_TABLE default
0.0005894628
0.0005894628
0.0005894628
0.0005894628
0.0005894628
0.0005894628
0.0005894628
0.0005894628
0.0005894628
0.0005894628
0.0005894628
0.0005894628
0.0005894628
0.0005894628
0.0005894628
0.0005894628
0.0005894628
0.0005894628
0.0005894628
0.0005894628
0.0005894628
0.0005894628
0.0005894628
0.0005894628
0.0005894628
0.0005894628
0.0005894628
0.0005894628
0.0005894628
0.0005894628
0.0005894628
0.0005894628
0.0005894628
0.0005894628
0.0005894628
0.0005894628
0.0005894628
0.0005894628
0.0005894628
0.0005894628
0.0005894628
0.0005894628
0.0005894628
0.0005894628
0.0005894628
0.0005894628
0.0005894628
0.0005894628
0.0005894628
0.0005894628
0.0005894628
0.0005894628
0.0005894628
0.0005894628
0.0005894628
0.0005894628
0.0005894628
0.0005894628
0.0005894628
0.0005894628
0.0005894628
0.0005894628
0.0005894628
0.0005894628
0.0005894628
0.0005894628
0.0005894628
0.0005894628
0.0005894628
0.0005894628
0.0005894628
0.0005894628
0.0005894628
0.0005894628
0.0005894628
0.0005894628
0.0005894628
0.0005894628
0.0005894628
0.0005894628
0.0005894628
0.0005894628
0.0005894628
0.0005894628
0.0005894628
0.0005894628
0.0005894628
0.0005894628
0.0005894628
0.0005894628
0.0005894628
0.0005894628
0.0005894628
0.0005894628
0.0005894628
0.0005894628
0.0005894628
0.0005894628
0.0005894628
0.0005894628
0.0005894628
0.0005894628
0.0005894628
0.0005894628
0.0005894628
0.0005894628
0.0005894628
0.0005894628
0.0005894628
0.0005894628
0.0005894628
0.0005894628
0.0005894628
0.0005894628
0.0005894628
0.0005894628
0.0005894628
0.0005894628
0.0005894628
0.0005894628
0.0005894628
0.0005894628
0.0005894628
0.0005894628
0.0005894628
0.0005894628
0.0005894628
0.0005894628
0.0005894628
0.0005894628
0.0005894628
0.0005894628
0.0005894628
0.0005894628
0.0005894628
0.0005894628
0.0005894628
0.0005894628
0.0005894628
0.0005894628
0.0005894628
0.0005894628
0.0005894628
0.0005894628
0.0005894628
0.0005894628
0.0005894628
0.0005894628
0.0005894628
0.0005894628
0.0005894628
0.0005894628
0.0005894628
0.0005894628
0.0005894628
0.0005894628
0.0005894628
0.0005894628
0.0005894628
0.0005894628
0.0005894628
0.0005894628
0.0005894628
0.0005894628
0.0005894628
0.0005894628
0.0005894628
0.0005894628
0.0005894628
0.0005894628
0.0005894628
0.0005894628
0.0005894628
0.0005894628
0.0005894628
0.0005894628
0.0005894628
0.0005894628
0.0005894628
0.0005894628
0.0005894628
0.0005894628
0.0005894628
0.0005894628
0.0005894628
0.0005894628
0.0005894628
0.0005894628
0.0005894628
0.0005894628
0.0005894628
0.0005894628
0.0005894628
0.0005894628
0.0005894628
0.0005894628
0.0005894628
0.0005894628
0.0005894628
0.0005894628
0.0005894628
0.0005894628
0.0005894628
0.0005894628
0.0005894628
0.0005894628
0.0005894628
0.0005894628
0.0005894628
0.0005894628
0.0005894628
0.0005894628
0.0005894628
0.0005894628
0.0005894628
0.0005894628
0.0005894628
0.0005894628
0.0005894628
0.0005894628
0.0005894628
0.0005894628
0.0005894628
0.0005894628
0.0005894628
0.0005894628
0.0005894628
0.0005894628
0.0005894628
0.0005894628
0.0005894628
0.0005894628
0.0005894628
0.0005894628
0.0005894628
0.0005894628
0.0005894628
0.0005894628
0.0005894628
0.0005894628
0.0005894628
0.0005894628
0.0005894628
0.0005894628
0.0005894628
0.0005894628
0.0005894628
0.0005894628
0.0005894628
0.0005894628
0.0005894628
0.0005894628
0.0005894628
0.0005894628
0.0005894628
0.0005894628
0.0005894628
0.0005894628
0.0005894628
0.0005894628
0.0005894628
0.0005894628
0.0005894628
0.0005894628
0.0005894628
0.0005894628
0.0005894628
0.0005894628
0.0005894628
0.0005894628
0.0005894628
0.0005894628
0.0005894628
0.0005894628
0.0005894628
0.0005894628
0.0005894628
0.0005894628
0.0005894628
0.0005894628
0.0005894628
0.0005894628
0.0005894628
0.0005894628
0.0005894628
0.0005894628
0.0005894628
0.0005894628
0.0005894628
0.0005894628
0.0005894628
0.0005894628
0.0005894628
0.0005894628
0.0005894628
0.0005894628
0.0005894628
0.0005894628
0.0005894628
0.0005894628
0.0005894628
0.0005894628
0.0005894628
0.0005894628
0.0005894628
0.0005894628
0.0005894628
0.0005894628
0.0005894628
0.0005894628
0.0005894628
0.0005894628
0.0005894628
0.0005894628
0.0005894628
0.0005894628
0.0005894628
0.0005894628
0.0005894628
0.0005894628
0.0005894628
0.0005894628
0.0005894628
0.0005894628
0.0005894628
0.0005894628
0.0005894628
0.0005894628
0.0005894628
0.0005894628
0.0005894628
0.0005894628
0.0005894628
0.0005894628
0.0005894628
0.0005894628
0.0005894628
0.0005894628
0.0005894628
0.0005894628
0.0005894628
0.0005894628
0.0005894628
0.0005894628
0.0005894628
0.0005894628
0.0005894628
0.0005894628
0.0005894628
0.0005894628


SCALARS b FLOAT 1
LOOKUP_TABLE default
0.02357851
0.02357851
0.02357851
0.02357851
0.02357851
0.02357851
0.02357851
0.02357851
0.02357851
0.02357851
0.02357851
0.02357851
0.02357851
0.02357851
0.02357851
0.02357851
0.02357851
0.02357851
0.02357851
0.02357851
0.02357851
0.02357851
0.02357851
0.02357851
0.02357851
0.02357851
0.02357851
0.02357851
0.02357851
0.02357851
0.02357851
0.02357851
0.02357851
0.02357851
0.02357851
0.02357851
0.02357851
0.02357851
0.02357851
0.02357851
0.02357851
0.02357851
0.02357851
0.02357851
0.02357851
0.02357851
0.02357851
0.02357851
0.02357851
0.02357851
0.02357851
0.02357851
0.02357851
0.02357851
0.02357851
0.02357851
0.02357851
0.02357851
0.02357851
0.02357851
0.02357851
0.02357851
0.02357851
0.02357851
0.02357851
0.02357851
0.02357851
0.02357851
0.02357851
0.02357851
0.02357851
0.02357851
0.02357851
0.02357851
0.02357851
0.02357851
0.02357851
0.02357851
0.02357851
0.02357851
0.02357851
0.02357851
0.02357851
0.02357851
0.02357851
0.02357851
0.02357851
0.02357851
0.02357851
0.02357851
0.02357851
0.02357851
0.02357851
0.02357851
0.02357851
0.02357851
0.02357851
0.02357851
0.02357851
0.02357851
0.02357851
0.02357851
0.02357851
0.02357851
0.02357851
0.02357851
0.02357851
0.02357851
0.02357851
0.02357851
0.02357851
0.02357851
0.02357851
0.02357851
0.02357851
0.02357851
0.02357851
0.02357851
0.02357851
0.02357851
0.02357851
0.02357851
0.02357851
0.02357851
0.02357851
0.02357851
0.02357851
0.02357851
0.02357851
0.02357851
0.02357851
0.02357851
0.02357851
0.02357851
0.02357851
0.02357851
0.02357851
0.02357851
0.02357851
0.02357851
0.02357851
0.02357851
0.02357851
0.02357851
0.02357851
0.02357851
0.02357851
0.02357851
0.02357851
0.02357851
0.02357851
0.02357851
0.02357851
0.02357851
0.02357851
0.02357851
0.02357851
0.02357851
0.02357851
0.02357851
0.02357851
0.02357851
0.02357851
0.02357851
0.02357851
0.02357851
0.02357851
0.02357851
0.02357851
0.02357851
0.02357851
0.02357851
0.02357851
0.02357851
0.02357851
0.02357851
0.02357851
0.02357851
0.02357851
0.02357851
0.02357851
0.02357851
0.02357851
0.02357851
0.02357851
0.02357851
0.02357851
0.02357851
0.02357851
0.02357851
0.02357851
0.02357851
0.02357851
0.02357851
0.02357851
0.02357851
0.02357851
0.02357851
0.02357851
0.02357851
0.02357851
0.02357851
0.02357851
0.02357851
0.02357851
0.02357851
0.02357851
0.02357851
0.02357851
0.02357851
0.02357851
0.02357851
0.02357851
0.02357851
0.02357851
0.02357851
0.02357851
0.02357851
0.02357851
0.02357851
0.02357851
0.02357851
0.02357851
0.02357851
0.02357851
0.02357851
0.02357851
0.02357851
0.02357851
0.02357851
0.02357851
0.02357851
0.02357851
0.02357851
0.02357851
0.02357851
0.02357851
0.02357851
0.02357851
0.02357851
0.02357851
0.02357851
0.02357851
0.02357851
0.02357851
0.02357851
0.02357851
0.02357851
0.02357851
0.02357851
0.02357851
0.02357851
0.02357851
0.02357851
0.02357851
0.02357851
0.02357851
0.02357851
0.02357851
0.02357851
0.02357851
0.02357851
0.02357851
0.02357851
0.02357851
0.02357851
0.02357851
0.02357851
0.02357851
0.02357851
0.02357851
0.02357851
0.02357851
0.02357851
0.02357851
0.02357851
0.02357851
0.02357851
0.02357851
0.02357851
0.02357851
0.02357851
0.02357851
0.02357851
0.02357851
0.02357851
0.02357851
0.02357851
0.02357851
0.02357851
0.02357851
0.02357851
0.02357851
0.02357851
0.02357851
0.02357851
0.02357851
0.02357851
0.02357851
0.02357851
0.02357851
0.02357851
0.02357851
0.02357851
0.02357851
0.02357851
0.02357851
0.02357851
0.02357851
0.02357851
0.02357851
0.02357851
0.02357851
0.02357851
0.02357851
0.02357851
0.02357851
0.02357851
0.02357851
0.02357851
0.02357851
0.02357851
0.02357851
0.02357851
0.02357851
0.02357851
0.02357851
0.02357851
0.02357851
0.02357851
0.02357851
0.02357851
0.02357851
0.02357851
0.02357851
0.02357851
0.02357851
0.02357851
0.02357851
0.02357851
0.02357851
0.02357851
0.02357851
0.02357851
0.02357851
0.02357851
0.02357851
0.02357851
0.02357851
0.02357851


VECTORS d1 FLOAT
0 0.431456 0.902134
-0.01090466 0.4453951 0.8952677
-0.0219632 0.4591287 0.8880982
-0.03316405 0.4726491 0.8806264
-0.04449574 0.485949 0.8728538
-0.05594688 0.4990209 0.8647821
-0.06750619 0.5118578 0.8564138
-0.0791625 0.5244529 0.8477514
-0.09090474 0.5367998 0.8387981
-0.102722 0.5488921 0.8295575
-0.1146034 0.5607238 0.8200335
-0.1265385 0.5722893 0.8102302
-0.1385165 0.5835832 0.8001524
-0.1505274 0.5946003 0.789805
-0.1625608 0.605336 0.7791934
-0.1746067 0.6157858 0.768323
-0.1866555 0.6259456 0.7572
-0.1986976 0.6358115 0.7458304
-0.2107234 0.6453802 0.7342207
-0.2227239 0.6546484 0.7223777
-0.2346902 0.6636134 0.7103083
-0.2466135 0.6722727 0.6980195
-0.2584853 0.6806242 0.6855189
-0.2702975 0.688666 0.6728138
-0.2820419 0.6963968 0.659912
-0.2937111 0.7038153 0.6468213
-0.3052973 0.7109207 0.6335497
-0.3167935 0.7177126 0.6201053
-0.3281928 0.7241906 0.6064961
-0.3394884 0.7303549 0.5927305
-0.3506739 0.7362059 0.5788166
-0.3617434 0.7417443 0.5647629
-0.3726909 0.746971 0.5505778
-0.3835109 0.7518872 0.5362695
-0.3941981 0.7564946 0.5218465
-0.4047475 0.7607948 0.5073172
-0.4151544 0.7647899 0.4926898
-0.4254144 0.7684821 0.4779727
-0.4355233 0.7718738 0.4631741
-0.4454773 0.7749678 0.4483022
-0.4552726 0.7777671 0.433365
-0.4649061 0.7802746 0.4183706
-0.4743745 0.7824936 0.4033269
-0.483675 0.7844277 0.3882417
-0.4928052 0.7860804 0.3731227
-0.5017627 0.7874556 0.3579775
-0.5105454 0.7885571 0.3428134
-0.5191516 0.7893891 0.3276378
-0.5275795 0.7899557 0.3124578
-0.535828 0.7902612 0.2972804
-0.5438958 0.79031 0.2821125
-0.5517821 0.7901066 0.2669607
-0.5594862 0.7896557 0.2518316
-0.5670076 0.7889618 0.2367314
-0.574346 0.7880296 0.2216664
-0.5815013 0.7868641 0.2066426
-0.5884737 0.7854699 0.1916658
-0.5952634 0.783852 0.1767415
-0.6018709 0.7820152 0.1618754
-0.6082968 0.7799645 0.1470726
-0.6145419 0.7777048 0.1323383
-0.6206072 0.7752411 0.1176774
-0.6264937 0.7725783 0.1030946
-0.6322027 0.7697212 0.08859452
-0.6377355 0.766675 0.07418146
-0.6430937 0.7634444 0.05985967
-0.6482788 0.7600343 0.04563317
-0.6532926 0.7564497 0.03150581
-0.658137 0.7526952 0.01748126
-0.6628138 0.7487758 0.003563038
-0.6673251 0.7446961 -0.01024551
-0.671673 0.7404608 -0.02394122
-0.6758597 0.7360746 -0.03752106
-0.6798876 0.731542 -0.05098218
-0.683759 0.7268675 -0.06432188
-0.6874763 0.7220556 -0.0775376
-0.691042 0.7171107 -0.09062695
-0.6944586 0.7120371 -0.1035877
-0.6977288 0.706839 -0.1164176
-0.7008552 0.7015207 -0.1291148
-0.7038405 0.6960862 -0.1416775
-0.7066875 0.6905395 -0.1541039
-0.7093988 0.6848846 -0.1663923
-0.7119773 0.6791254 -0.1785415
-0.7144258 0.6732656 -0.1905499
-0.7167471 0.6673089 -0.2024164
-0.7189441 0.661259 -0.2141398
-0.7210197 0.6551194 -0.2257192
-0.7229768 0.6488935 -0.2371535
-0.7248182 0.6425847 -0.2484421
-0.7265469 0.6361963 -0.2595841
-0.7281657 0.6297315 -0.270579
-0.7296775 0.6231934 -0.2814262
-0.7310853 0.616585 -0.2921252
-0.732392 0.6099094 -0.3026756
-0.7336003 0.6031693 -0.3130773
-0.7347133 0.5963675 -0.3233298
-0.7357337 0.5895068 -0.3334332
-0.7366643 0.5825898 -0.3433872
-0.7375082 0.575619 -0.3531919
-0.7382679 0.5685969 -0.3628472
-0.7389463 0.5615258 -0.3723534
-0.7395463 0.5544082 -0.3817105
-0.7400704 0.5472462 -0.3909187
-0.7405215 0.5400419 -0.3999782
-0.7409023 0.5327975 -0.4088895
-0.7412154 0.525515 -0.4176526
-0.7414634 0.5181964 -0.4262682
-0.741649 0.5108434 -0.4347365
-0.7417747 0.503458 -0.443058
-0.7418431 0.4960418 -0.4512332
-0.7418566 0.4885966 -0.4592625
-0.7418179 0.4811239 -0.4671466
-0.7417293 0.4736253 -0.474886
-0.7415933 0.4661023 -0.4824811
-0.7414121 0.4585563 -0.4899328
-0.7411883 0.4509887 -0.4972415
-0.740924 0.4434008 -0.5044079
-0.7406216 0.4357939 -0.5114327
-0.7402833 0.4281691 -0.5183165
-0.7399112 0.4205276 -0.52506
-0.7395076 0.4128705 -0.5316639
-0.7390746 0.4051989 -0.5381289
-0.7386142 0.3975137 -0.5444556
-0.7381285 0.3898159 -0.5506449
-0.7376195 0.3821065 -0.5566974
-0.7370893 0.3743863 -0.5626139
-0.7365396 0.366656 -0.5683949
-0.7359724 0.3589166 -0.5740414
-0.7353896 0.3511686 -0.5795539
-0.7347929 0.3434129 -0.5849332
-0.7341842 0.3356501 -0.5901801
-0.7335652 0.3278808 -0.5952951
-0.7329375 0.3201056 -0.6002791
-0.7323029 0.312325 -0.6051327
-0.7316629 0.3045397 -0.6098566
-0.7310191 0.29675 -0.6144514
-0.7303731 0.2889564 -0.6189179
-0.7297263 0.2811594 -0.6232568
-0.7290802 0.2733593 -0.6274685
-0.7284362 0.2655565 -0.6315539
-0.7277958 0.2577515 -0.6355136
-0.7271602 0.2499444 -0.639348
-0.7265307 0.2421357 -0.6430579
-0.7259086 0.2343255 -0.6466439
-0.7252951 0.2265141 -0.6501065
-0.7246914 0.2187018 -0.6534462
-0.7240986 0.2108888 -0.6566637
-0.7235178 0.2030752 -0.6597594
-0.7229502 0.1952612 -0.6627338
-0.7223966 0.187447 -0.6655876
-0.7218581 0.1796327 -0.668321
-0.7213356 0.1718184 -0.6709347
-0.72083 0.1640043 -0.673429
-0.7203423 0.1561904 -0.6758044
-0.7198731 0.1483768 -0.6780613
-0.7194233 0.1405636 -0.6802
-0.7189935 0.1327508 -0.682221
-0.7185847 0.1249384 -0.6841246
-0.7181972 0.1171266 -0.6859111
-0.7178319 0.1093152 -0.6875809
-0.7174893 0.1015043 -0.6891343
-0.7171698 0.09369395 -0.6905714
-0.7168741 0.08588409 -0.6918926
-0.7166026 0.07807471 -0.6930982
-0.7163556 0.07026579 -0.6941883
-0.7161336 0.06245731 -0.6951631
-0.715937 0.05464922 -0.6960228
-0.7157659 0.04684149 -0.6967676
-0.7156207 0.03903408 -0.6973975
-0.7155017 0.03122693 -0.6979128
-0.7154089 0.02342 -0.6983135
-0.7153425 0.01561324 -0.6985996
-0.7153026 0.007806594 -0.6987713
-0.7152893 8.831824e-14 -0.6988285
-0.7153026 -0.007806594 -0.6987713
-0.7153425 -0.01561324 -0.6985996
-0.7154089 -0.02342 -0.6983135
-0.7155017 -0.03122693 -0.6979128
-0.7156207 -0.03903408 -0.6973975
-0.7157659 -0.04684149 -0.6967676
-0.715937 -0.05464922 -0.6960228
-0.7161336 -0.06245731 -0.6951631
-0.7163556 -0.07026579 -0.6941883
-0.7166026 -0.07807471 -0.6930982
-0.7168741 -0.08588409 -0.6918926
-0.7171698 -0.09369395 -0.6905714
-0.7174893 -0.1015043 -0.6891343
-0.7178319 -0.1093152 -0.6875809
-0.7181972 -0.1171266 -0.6859111
-0.7185847 -0.1249384 -0.6841246
-0.7189935 -0.1327508 -0.682221
-0.7194233 -0.1405636 -0.6802
-0.7198731 -0.1483768 -0.6780613
-0.7203423 -0.1561904 -0.6758044
-0.72083 -0.1640043 -0.673429
-0.7213356 -0.1718184 -0.6709347
-0.7218581 -0.1796327 -0.668321
-0.7223966 -0.187447 -0.6655876
-0.7229502 -0.1952612 -0.6627338
-0.7235178 -0.2030752 -0.6597594
-0.7240986 -0.2108888 -0.6566637
-0.7246914 -0.2187018 -0.6534462
-0.7252951 -0.2265141 -0.6501065
-0.7259086 -0.2343255 -0.6466439
-0.7265307 -0.2421357 -0.6430579
-0.7271602 -0.2499444 -0.639348
-0.7277958 -0.2577515 -0.6355136
-0.7284362 -0.2655565 -0.6315539
-0.7290802 -0.2733593 -0.6274685
-0.7297263 -0.2811594 -0.6232568
-0.7303731 -0.2889564 -0.6189179
-0.7310191 -0.29675 -0.6144514
-0.7316629 -0.3045397 -0.6098566
-0.7323029 -0.312325 -0.6051327
-0.7329375 -0.3201056 -0.6002791
-0.7335652 -0.3278808 -0.5952951
-0.7341842 -0.3356501 -0.5901801
-0.7347929 -0.3434129 -0.5849332
-0.7353896 -0.3511686 -0.5795539
-0.7359724 -0.3589166 -0.5740414
-0.7365396 -0.366656 -0.5683949
-0.7370893 -0.3743863 -0.5626139
-0.7376195 -0.3821065 -0.5566974
-0.7381285 -0.3898159 -0.5506449
-0.7386142 -0.3975137 -0.5444556
-0.7390746 -0.4051989 -0.5381289
-0.7395076 -0.4128705 -0.5316639
-0.7399112 -0.4205276 -0.52506
-0.7402833 -0.4281691 -0.5183165