# vtk DataFile Version 2.0
Written badly by Kevin Korner
ASCII
DATASET POLYDATA
POINTS 350 FLOAT
0 0 0
0.00286533 0 0
0.005730505 2.386464e-05 1.762523e-05
0.008595221 7.173479e-05 5.266402e-05
0.01145917 0.0001437451 0.0001049017
0.01432204 0.0002400239 0.0001741207
0.01718354 0.0003606935 0.0002601007
0.02004335 0.0005058696 0.0003626187
0.02290118 0.0006756621 0.0004814493
0.02575671 0.0008701746 0.0006163643
0.02860965 0.001089504 0.0007671337
0.0314597 0.001333743 0.0009335249
0.03430656 0.001602975 0.001115303
0.03714992 0.001897281 0.001312233
0.0399895 0.002216732 0.001524074
0.04282499 0.002561397 0.001750588
0.0456561 0.002931337 0.001991532
0.04848254 0.003326607 0.002246662
0.05130403 0.003747256 0.002515735
0.05412026 0.004193329 0.002798504
0.05693096 0.004664864 0.003094721
0.05973584 0.005161893 0.003404138
0.06253461 0.005684442 0.003726506
0.065327 0.006232534 0.004061573
0.06811273 0.006806184 0.004409089
0.07089151 0.007405402 0.004768801
0.07366309 0.008030193 0.005140457
0.07642717 0.008680558 0.005523803
0.07918351 0.00935649 0.005918586
0.08193182 0.01005798 0.006324551
0.08467185 0.01078501 0.006741444
0.08740332 0.01153756 0.00716901
0.09012599 0.01231561 0.007606995
0.0928396 0.01311912 0.008055144
0.09554388 0.01394806 0.008513202
0.09823859 0.01480239 0.008980915
0.1009235 0.01568207 0.009458028
0.1035983 0.01658704 0.009944287
0.1062628 0.01751725 0.01043944
0.1089168 0.01847265 0.01094323
0.11156 0.01945316 0.01145541
0.1141921 0.02045874 0.01197572
0.116813 0.0214893 0.01250391
0.1194224 0.02254476 0.01303973
0.1220201 0.02362506 0.01358294
0.1246059 0.02473011 0.01413328
0.1271794 0.02585982 0.0146905
0.1297407 0.0270141 0.01525436
0.1322893 0.02819286 0.0158246
0.1348251 0.02939599 0.01640099
0.1373479 0.03062341 0.01698329
0.1398575 0.03187499 0.01757123
0.1423536 0.03315065 0.0181646
0.1448361 0.03445025 0.01876313
0.1473048 0.0357737 0.0193666
0.1497595 0.03712087 0.01997477
0.1521999 0.03849164 0.0205874
0.154626 0.03988588 0.02120425
0.1570374 0.04130348 0.02182509
0.1594341 0.04274429 0.02244969
0.1618158 0.04420819 0.02307782
0.1641824 0.04569505 0.02370924
0.1665336 0.04720472 0.02434374
0.1688694 0.04873706 0.02498108
0.1711895 0.05029194 0.02562104
0.1734938 0.0518692 0.0262634
0.1757821 0.05346869 0.02690793
0.1780543 0.05509028 0.02755443
0.1803101 0.05673379 0.02820266
0.1825494 0.05839909 0.02885242
0.1847722 0.06008601 0.02950349
0.1869781 0.0617944 0.03015566
0.1891671 0.06352408 0.03080872
0.1913391 0.06527491 0.03146245
0.1934938 0.06704671 0.03211667
0.1956312 0.06883932 0.03277115
0.197751 0.07065257 0.0334257
0.1998533 0.07248628 0.03408012
0.2019377 0.0743403 0.03473421
0.2040042 0.07621443 0.03538776
0.2060527 0.07810852 0.0360406
0.2080831 0.08002237 0.03669252
0.2100951 0.08195582 0.03734334
0.2120888 0.08390868 0.03799286
0.2140639 0.08588077 0.03864091
0.2160203 0.0878719 0.03928728
0.217958 0.0898819 0.03993181
0.2198768 0.09191058 0.04057431
0.2217766 0.09395776 0.04121461
0.2236573 0.09602323 0.04185252
0.2255187 0.09810682 0.04248788
0.2273609 0.1002083 0.04312051
0.2291836 0.1023276 0.04375024
0.2309868 0.1044644 0.0443769
0.2327704 0.1066185 0.04500033
0.2345342 0.1087898 0.04562037
0.2362783 0.1109781 0.04623684
0.2380024 0.1131831 0.0468496
0.2397065 0.1154047 0.04745849
0.2413905 0.1176426 0.04806334
0.2430543 0.1198967 0.04866401
0.2446978 0.1221668 0.04926034
0.246321 0.1244527 0.04985219
0.2479237 0.1267541 0.0504394
0.2495059 0.1290709 0.05102184
0.2510675 0.1314028 0.05159936
0.2526084 0.1337497 0.05217182
0.2541286 0.1361114 0.05273908
0.2556279 0.1384876 0.053301
0.2571063 0.1408782 0.05385745
0.2585637 0.1432829 0.0544083
0.2600001 0.1457015 0.05495342
0.2614154 0.1481339 0.05549267
0.2628094 0.1505798 0.05602593
0.2641822 0.153039 0.05655309
0.2655337 0.1555112 0.057074
0.2668638 0.1579964 0.05758856
0.2681725 0.1604943 0.05809665
0.2694596 0.1630047 0.05859815
0.2707252 0.1655273 0.05909295
0.2719692 0.1680619 0.05958093
0.2731915 0.1706084 0.06006199
0.2743921 0.1731666 0.06053602
0.2755708 0.1757361 0.06100291
0.2767278 0.1783169 0.06146255
0.2778628 0.1809086 0.06191486
0.2789759 0.1835112 0.06235972
0.2800671 0.1861243 0.06279703
0.2811361 0.1887477 0.06322672
0.2821832 0.1913813 0.06364867
0.283208 0.1940249 0.0640628
0.2842108 0.1966781 0.06446903
0.2851913 0.1993408 0.06486725
0.2861495 0.2020128 0.06525739
0.2870855 0.2046939 0.06563937
0.2879991 0.2073839 0.06601309
0.2888904 0.2100824 0.06637849
0.2897592 0.2127894 0.06673549
0.2906056 0.2155046 0.067084
0.2914295 0.2182278 0.06742396
0.292231 0.2209587 0.0677553
0.2930098 0.2236972 0.06807794
0.2937661 0.226443 0.06839182
0.2944998 0.229196 0.06869688
0.2952109 0.2319559 0.06899304
0.2958993 0.2347224 0.06928025
0.296565 0.2374954 0.06955846
0.297208 0.2402746 0.06982759
0.2978282 0.2430599 0.0700876
0.2984257 0.245851 0.07033844
0.2990004 0.2486477 0.07058004
0.2995523 0.2514498 0.07081237
0.3000813 0.254257 0.07103538
0.3005875 0.2570692 0.07124901
0.3010708 0.259886 0.07145323
0.3015313 0.2627074 0.071648
0.3019688 0.2655331 0.07183327
0.3023833 0.2683628 0.072009
0.302775 0.2711964 0.07217517
0.3031436 0.2740336 0.07233174
0.3034893 0.2768742 0.07247868
0.3038121 0.279718 0.07261595
0.3041118 0.2825647 0.07274354
0.3043885 0.2854142 0.07286141
0.3046422 0.2882663 0.07296954
0.3048728 0.2911206 0.07306791
0.3050804 0.293977 0.07315649
0.305265 0.2968353 0.07323528
0.3054265 0.2996952 0.07330426
0.3055649 0.3025566 0.07336341
0.3056803 0.3054192 0.07341271
0.3057726 0.3082828 0.07345217
0.3058418 0.3111471 0.07348177
0.305888 0.314012 0.07350151
0.3059111 0.3168772 0.07351138
0.3059111 0.3197426 0.07351138
0.305888 0.3226078 0.07350151
0.3058418 0.3254727 0.07348177
0.3057726 0.328337 0.07345217
0.3056803 0.3312006 0.07341271
0.3055649 0.3340632 0.07336341
0.3054265 0.3369245 0.07330426
0.305265 0.3397845 0.07323528
0.3050804 0.3426428 0.07315649
0.3048728 0.3454992 0.07306791
0.3046422 0.3483535 0.07296954
0.3043885 0.3512055 0.07286141
0.3041118 0.3540551 0.07274354
0.3038121 0.3569018 0.07261595
0.3034893 0.3597456 0.07247868
0.3031436 0.3625862 0.07233174
0.302775 0.3654234 0.07217517
0.3023833 0.368257 0.072009
0.3019688 0.3710867 0.07183327
0.3015313 0.3739124 0.071648
0.3010708 0.3767337 0.07145323
0.3005875 0.3795506 0.07124901
0.3000813 0.3823628 0.07103538
0.2995523 0.38517 0.07081237
0.2990004 0.3879721 0.07058004
0.2984257 0.3907688 0.07033844
0.2978282 0.3935598 0.0700876
0.297208 0.3963451 0.06982759
0.296565 0.3991244 0.06955846
0.2958993 0.4018974 0.06928025
0.2952109 0.4046639 0.06899304
0.2944998 0.4074238 0.06869688
0.2937661 0.4101767 0.06839182
0.2930098 0.4129226 0.06807794
0.292231 0.4156611 0.0677553
0.2914295 0.418392 0.06742396
0.2906056 0.4211152 0.067084
0.2897592 0.4238304 0.06673549
0.2888904 0.4265373 0.06637849
0.2879991 0.4292359 0.06601309
0.2870855 0.4319258 0.06563937
0.2861495 0.4346069 0.06525739
0.2851913 0.4372789 0.06486725
0.2842108 0.4399417 0.06446903
0.283208 0.4425949 0.0640628
0.2821832 0.4452384 0.06364867
0.2811361 0.447872 0.06322672
0.2800671 0.4504955 0.06279703
0.2789759 0.4531086 0.06235972
0.2778628 0.4557111 0.06191486
0.2767278 0.4583029 0.06146255
0.2755708 0.4608836 0.06100291
0.2743921 0.4634532 0.06053602
0.2731915 0.4660113 0.06006199
0.2719692 0.4685578 0.05958093
0.2707252 0.4710925 0.05909295
0.2694596 0.4736151 0.05859815
0.2681725 0.4761255 0.05809665
0.2668638 0.4786233 0.05758856
0.2655337 0.4811085 0.057074
0.2641822 0.4835808 0.05655309
0.2628094 0.48604 0.05602593
0.2614154 0.4884859 0.05549267
0.2600001 0.4909183 0.05495342
0.2585637 0.4933369 0.0544083
0.2571063 0.4957416 0.05385745
0.2556279 0.4981322 0.053301
0.2541286 0.5005084 0.05273908
0.2526084 0.50287 0.05217182
0.2510675 0.5052169 0.05159936
0.2495059 0.5075489 0.05102184
0.2479237 0.5098657 0.0504394
0.246321 0.5121671 0.04985219
0.2446978 0.514453 0.04926034
0.2430543 0.516723 0.04866401
0.2413905 0.5189772 0.04806334
0.2397065 0.5212151 0.04745849
0.2380024 0.5234367 0.0468496
0.2362783 0.5256417 0.04623684
0.2345342 0.52783 0.04562037
0.2327704 0.5300012 0.04500033
0.2309868 0.5321554 0.0443769
0.2291836 0.5342922 0.04375024
0.2273609 0.5364114 0.04312051
0.2255187 0.5385129 0.04248788
0.2236573 0.5405965 0.04185252
0.2217766 0.542662 0.04121461
0.2198768 0.5447092 0.04057431
0.217958 0.5467379 0.03993181
0.2160203 0.5487479 0.03928728
0.2140639 0.550739 0.03864091
0.2120888 0.5527111 0.03799286
0.2100951 0.554664 0.03734334
0.2080831 0.5565974 0.03669252
0.2060527 0.5585113 0.0360406
0.2040042 0.5604053 0.03538776
0.2019377 0.5622795 0.03473421
0.1998533 0.5641335 0.03408012
0.197751 0.5659672 0.0334257
0.1956312 0.5677805 0.03277115
0.1934938 0.5695731 0.03211667
0.1913391 0.5713449 0.03146245
0.1891671 0.5730957 0.03080872
0.1869781 0.5748254 0.03015566
0.1847722 0.5765338 0.02950349
0.1825494 0.5782207 0.02885242
0.1803101 0.579886 0.02820266
0.1780543 0.5815295 0.02755443
0.1757821 0.5831511 0.02690793
0.1734938 0.5847506 0.0262634
0.1711895 0.5863278 0.02562104
0.1688694 0.5878827 0.02498108
0.1665336 0.5894151 0.02434374
0.1641824 0.5909247 0.02370924
0.1618158 0.5924116 0.02307782
0.1594341 0.5938755 0.02244969
0.1570374 0.5953163 0.02182509
0.154626 0.5967339 0.02120425
0.1521999 0.5981281 0.0205874
0.1497595 0.5994989 0.01997477
0.1473048 0.6008461 0.0193666
0.1448361 0.6021695 0.01876313
0.1423536 0.6034691 0.0181646
0.1398575 0.6047448 0.01757123
0.1373479 0.6059964 0.01698329
0.1348251 0.6072238 0.01640099
0.1322893 0.6084269 0.0158246
0.1297407 0.6096057 0.01525436
0.1271794 0.61076 0.0146905
0.1246059 0.6118897 0.01413328
0.1220201 0.6129947 0.01358294
0.1194224 0.614075 0.01303973
0.116813 0.6151305 0.01250391
0.1141921 0.616161 0.01197572
0.11156 0.6171666 0.01145541
0.1089168 0.6181471 0.01094323
0.1062628 0.6191025 0.01043944
0.1035983 0.6200327 0.009944287
0.1009235 0.6209377 0.009458028
0.09823859 0.6218174 0.008980915
0.09554388 0.6226717 0.008513202
0.0928396 0.6235007 0.008055144
0.09012599 0.6243042 0.007606995
0.08740332 0.6250822 0.00716901
0.08467185 0.6258348 0.006741444
0.08193182 0.6265618 0.006324551
0.07918351 0.6272633 0.005918586
0.07642717 0.6279392 0.005523803
0.07366309 0.6285896 0.005140457
0.07089151 0.6292144 0.004768801
0.06811273 0.6298136 0.004409089
0.065327 0.6303872 0.004061573
0.06253461 0.6309353 0.003726506
0.05973584 0.6314579 0.003404138
0.05693096 0.6319549 0.003094721
0.05412026 0.6324264 0.002798504
0.05130403 0.6328725 0.002515735
0.04848254 0.6332932 0.002246662
0.0456561 0.6336884 0.001991532
0.04282499 0.6340584 0.001750588
0.0399895 0.634403 0.001524074
0.03714992 0.6347225 0.001312233
0.03430656 0.6350168 0.001115303
0.0314597 0.635286 0.0009335249
0.02860965 0.6355303 0.0007671337
0.02575671 0.6357496 0.0006163643
0.02290118 0.6359441 0.0004814493
0.02004335 0.6361139 0.0003626187
0.01718354 0.6362591 0.0002601007
0.01432204 0.6363797 0.0001741207
0.01145917 0.636476 0.0001049017
0.008595221 0.636548 5.266402e-05
0.005730505 0.6365959 1.762523e-05
0.00286533 0.6366198 0
0 0.6366198 0

LINES 349 1047
2 0 1
2 1 2
2 2 3
2 3 4
2 4 5
2 5 6
2 6 7
2 7 8
2 8 9
2 9 10
2 10 11
2 11 12
2 12 13
2 13 14
2 14 15
2 15 16
2 16 17
2 17 18
2 18 19
2 19 20
2 20 21
2 21 22
2 22 23
2 23 24
2 24 25
2 25 26
2 26 27
2 27 28
2 28 29
2 29 30
2 30 31
2 31 32
2 32 33
2 33 34
2 34 35
2 35 36
2 36 37
2 37 38
2 38 39
2 39 40
2 40 41
2 41 42
2 42 43
2 43 44
2 44 45
2 45 46
2 46 47
2 47 48
2 48 49
2 49 50
2 50 51
2 51 52
2 52 53
2 53 54
2 54 55
2 55 56
2 56 57
2 57 58
2 58 59
2 59 60
2 60 61
2 61 62
2 62 63
2 63 64
2 64 65
2 65 66
2 66 67
2 67 68
2 68 69
2 69 70
2 70 71
2 71 72
2 72 73
2 73 74
2 74 75
2 75 76
2 76 77
2 77 78
2 78 79
2 79 80
2 80 81
2 81 82
2 82 83
2 83 84
2 84 85
2 85 86
2 86 87
2 87 88
2 88 89
2 89 90
2 90 91
2 91 92
2 92 93
2 93 94
2 94 95
2 95 96
2 96 97
2 97 98
2 98 99
2 99 100
2 100 101
2 101 102
2 102 103
2 103 104
2 104 105
2 105 106
2 106 107
2 107 108
2 108 109
2 109 110
2 110 111
2 111 112
2 112 113
2 113 114
2 114 115
2 115 116
2 116 117
2 117 118
2 118 119
2 119 120
2 120 121
2 121 122
2 122 123
2 123 124
2 124 125
2 125 126
2 126 127
2 127 128
2 128 129
2 129 130
2 130 131
2 131 132
2 132 133
2 133 134
2 134 135
2 135 136
2 136 137
2 137 138
2 138 139
2 139 140
2 140 141
2 141 142
2 142 143
2 143 144
2 144 145
2 145 146
2 146 147
2 147 148
2 148 149
2 149 150
2 150 151
2 151 152
2 152 153
2 153 154
2 154 155
2 155 156
2 156 157
2 157 158
2 158 159
2 159 160
2 160 161
2 161 162
2 162 163
2 163 164
2 164 165
2 165 166
2 166 167
2 167 168
2 168 169
2 169 170
2 170 171
2 171 172
2 172 173
2 173 174
2 174 175
2 175 176
2 176 177
2 177 178
2 178 179
2 179 180
2 180 181
2 181 182
2 182 183
2 183 184
2 184 185
2 185 186
2 186 187
2 187 188
2 188 189
2 189 190
2 190 191
2 191 192
2 192 193
2 193 194
2 194 195
2 195 196
2 196 197
2 197 198
2 198 199
2 199 200
2 200 201
2 201 202
2 202 203
2 203 204
2 204 205
2 205 206
2 206 207
2 207 208
2 208 209
2 209 210
2 210 211
2 211 212
2 212 213
2 213 214
2 214 215
2 215 216
2 216 217
2 217 218
2 218 219
2 219 220
2 220 221
2 221 222
2 222 223
2 223 224
2 224 225
2 225 226
2 226 227
2 227 228
2 228 229
2 229 230
2 230 231
2 231 232
2 232 233
2 233 234
2 234 235
2 235 236
2 236 237
2 237 238
2 238 239
2 239 240
2 240 241
2 241 242
2 242 243
2 243 244
2 244 245
2 245 246
2 246 247
2 247 248
2 248 249
2 249 250
2 250 251
2 251 252
2 252 253
2 253 254
2 254 255
2 255 256
2 256 257
2 257 258
2 258 259
2 259 260
2 260 261
2 261 262
2 262 263
2 263 264
2 264 265
2 265 266
2 266 267
2 267 268
2 268 269
2 269 270
2 270 271
2 271 272
2 272 273
2 273 274
2 274 275
2 275 276
2 276 277
2 277 278
2 278 279
2 279 280
2 280 281
2 281 282
2 282 283
2 283 284
2 284 285
2 285 286
2 286 287
2 287 288
2 288 289
2 289 290
2 290 291
2 291 292
2 292 293
2 293 294
2 294 295
2 295 296
2 296 297
2 297 298
2 298 299
2 299 300
2 300 301
2 301 302
2 302 303
2 303 304
2 304 305
2 305 306
2 306 307
2 307 308
2 308 309
2 309 310
2 310 311
2 311 312
2 312 313
2 313 314
2 314 315
2 315 316
2 316 317
2 317 318
2 318 319
2 319 320
2 320 321
2 321 322
2 322 323
2 323 324
2 324 325
2 325 326
2 326 327
2 327 328
2 328 329
2 329 330
2 330 331
2 331 332
2 332 333
2 333 334
2 334 335
2 335 336
2 336 337
2 337 338
2 338 339
2 339 340
2 340 341
2 341 342
2 342 343
2 343 344
2 344 345
2 345 346
2 346 347
2 347 348
2 348 349


POINT_DATA 350
SCALARS a FLOAT 1
LOOKUP_TABLE default
0.0005894628
0.0005894628
0.0005894628
0.0005894628
0.0005894628
0.0005894628
0.0005894628
0.0005894628
0.0005894628
0.0005894628
0.0005894628
0.0005894628
0.0005894628
0.0005894628
0.0005894628
0.0005894628
0.0005894628
0.0005894628
0.0005894628
0.0005894628
0.0005894628
0.0005894628
0.0005894628
0.0005894628
0.0005894628
0.0005894628
0.0005894628
0.0005894628
0.0005894628
0.0005894628
0.0005894628
0.0005894628
0.0005894628
0.0005894628
0.0005894628
0.0005894628
0.0005894628
0.0005894628
0.0005894628
0.0005894628
0.0005894628
0.0005894628
0.0005894628
0.0005894628
0.0005894628
0.0005894628
0.0005894628
0.0005894628
0.0005894628
0.0005894628
0.0005894628
0.0005894628
0.0005894628
0.0005894628
0.0005894628
0.0005894628
0.0005894628
0.0005894628
0.0005894628
0.0005894628
0.0005894628
0.0005894628
0.0005894628
0.0005894628
0.0005894628
0.0005894628
0.0005894628
0.0005894628
0.0005894628
0.0005894628
0.0005894628
0.0005894628
0.0005894628
0.0005894628
0.0005894628
0.0005894628
0.0005894628
0.0005894628
0.0005894628
0.0005894628
0.0005894628
0.0005894628
0.0005894628
0.0005894628
0.0005894628
0.0005894628
0.0005894628
0.0005894628
0.0005894628
0.0005894628
0.0005894628
0.0005894628
0.0005894628
0.0005894628
0.0005894628
0.0005894628
0.0005894628
0.0005894628
0.0005894628
0.0005894628
0.0005894628
0.0005894628
0.0005894628
0.0005894628
0.0005894628
0.0005894628
0.0005894628
0.0005894628
0.0005894628
0.0005894628
0.0005894628
0.0005894628
0.0005894628
0.0005894628
0.0005894628
0.0005894628
0.0005894628
0.0005894628
0.0005894628
0.0005894628
0.0005894628
0.0005894628
0.0005894628
0.0005894628
0.0005894628
0.0005894628
0.0005894628
0.0005894628
0.0005894628
0.0005894628
0.0005894628
0.0005894628
0.0005894628
0.0005894628
0.0005894628
0.0005894628
0.0005894628
0.0005894628
0.0005894628
0.0005894628
0.0005894628
0.0005894628
0.0005894628
0.0005894628
0.0005894628
0.0005894628
0.0005894628
0.0005894628
0.0005894628
0.0005894628
0.0005894628
0.0005894628
0.0005894628
0.0005894628
0.0005894628
0.0005894628
0.0005894628
0.0005894628
0.0005894628
0.0005894628
0.0005894628
0.0005894628
0.0005894628
0.0005894628
0.0005894628
0.0005894628
0.0005894628
0.0005894628
0.0005894628
0.0005894628
0.0005894628
0.0005894628
0.0005894628
0.0005894628
0.0005894628
0.0005894628
0.0005894628
0.0005894628
0.0005894628
0.0005894628
0.0005894628
0.0005894628
0.0005894628
0.0005894628
0.0005894628
0.0005894628
0.0005894628
0.0005894628
0.0005894628
0.0005894628
0.0005894628
0.0005894628
0.0005894628
0.0005894628
0.0005894628
0.0005894628
0.0005894628
0.0005894628
0.0005894628
0.0005894628
0.0005894628
0.0005894628
0.0005894628
0.0005894628
0.0005894628
0.0005894628
0.0005894628
0.0005894628
0.0005894628
0.0005894628
0.0005894628
0.0005894628
0.0005894628
0.0005894628
0.0005894628
0.0005894628
0.0005894628
0.0005894628
0.0005894628
0.0005894628
0.0005894628
0.0005894628
0.0005894628
0.0005894628
0.0005894628
0.0005894628
0.0005894628
0.0005894628
0.0005894628
0.0005894628
0.0005894628
0.0005894628
0.0005894628
0.0005894628
0.0005894628
0.0005894628
0.0005894628
0.0005894628
0.0005894628
0.0005894628
0.0005894628
0.0005894628
0.0005894628
0.0005894628
0.0005894628
0.0005894628
0.0005894628
0.0005894628
0.0005894628
0.0005894628
0.0005894628
0.0005894628
0.0005894628
0.0005894628
0.0005894628
0.0005894628
0.0005894628
0.0005894628
0.0005894628
0.0005894628
0.0005894628
0.0005894628
0.0005894628
0.0005894628
0.0005894628
0.0005894628
0.0005894628
0.0005894628
0.0005894628
0.0005894628
0.0005894628
0.0005894628
0.0005894628
0.0005894628
0.0005894628
0.0005894628
0.0005894628
0.0005894628
0.0005894628
0.0005894628
0.0005894628
0.0005894628
0.0005894628
0.0005894628
0.0005894628
0.0005894628
0.0005894628
0.0005894628
0.0005894628
0.0005894628
0.0005894628
0.0005894628
0.0005894628
0.0005894628
0.0005894628
0.0005894628
0.0005894628
0.0005894628
0.0005894628
0.0005894628
0.0005894628
0.0005894628
0.0005894628
0.0005894628
0.0005894628
0.0005894628
0.0005894628
0.0005894628
0.0005894628
0.0005894628
0.0005894628
0.0005894628
0.0005894628
0.0005894628
0.0005894628
0.0005894628
0.0005894628
0.0005894628
0.0005894628
0.0005894628
0.0005894628
0.0005894628
0.0005894628
0.0005894628
0.0005894628
0.0005894628
0.0005894628
0.0005894628
0.0005894628
0.0005894628
0.0005894628
0.0005894628
0.0005894628
0.0005894628
0.0005894628
0.0005894628
0.0005894628
0.0005894628
0.0005894628
0.0005894628
0.0005894628
0.0005894628
0.0005894628
0.0005894628
0.0005894628
0.0005894628
0.0005894628
0.0005894628
0.0005894628
0.0005894628


SCALARS b FLOAT 1
LOOKUP_TABLE default
0.02357851
0.02357851
0.02357851
0.02357851
0.02357851
0.02357851
0.02357851
0.02357851
0.02357851
0.02357851
0.02357851
0.02357851
0.02357851
0.02357851
0.02357851
0.02357851
0.02357851
0.02357851
0.02357851
0.02357851
0.02357851
0.02357851
0.02357851
0.02357851
0.02357851
0.02357851
0.02357851
0.02357851
0.02357851
0.02357851
0.02357851
0.02357851
0.02357851
0.02357851
0.02357851
0.02357851
0.02357851
0.02357851
0.02357851
0.02357851
0.02357851
0.02357851
0.02357851
0.02357851
0.02357851
0.02357851
0.02357851
0.02357851
0.02357851
0.02357851
0.02357851
0.02357851
0.02357851
0.02357851
0.02357851
0.02357851
0.02357851
0.02357851
0.02357851
0.02357851
0.02357851
0.02357851
0.02357851
0.02357851
0.02357851
0.02357851
0.02357851
0.02357851
0.02357851
0.02357851
0.02357851
0.02357851
0.02357851
0.02357851
0.02357851
0.02357851
0.02357851
0.02357851
0.02357851
0.02357851
0.02357851
0.02357851
0.02357851
0.02357851
0.02357851
0.02357851
0.02357851
0.02357851
0.02357851
0.02357851
0.02357851
0.02357851
0.02357851
0.02357851
0.02357851
0.02357851
0.02357851
0.02357851
0.02357851
0.02357851
0.02357851
0.02357851
0.02357851
0.02357851
0.02357851
0.02357851
0.02357851
0.02357851
0.02357851
0.02357851
0.02357851
0.02357851
0.02357851
0.02357851
0.02357851
0.02357851
0.02357851
0.02357851
0.02357851
0.02357851
0.02357851
0.02357851
0.02357851
0.02357851
0.02357851
0.02357851
0.02357851
0.02357851
0.02357851
0.02357851
0.02357851
0.02357851
0.02357851
0.02357851
0.02357851
0.02357851
0.02357851
0.02357851
0.02357851
0.02357851
0.02357851
0.02357851
0.02357851
0.02357851
0.02357851
0.02357851
0.02357851
0.02357851
0.02357851
0.02357851
0.02357851
0.02357851
0.02357851
0.02357851
0.02357851
0.02357851
0.02357851
0.02357851
0.02357851
0.02357851
0.02357851
0.02357851
0.02357851
0.02357851
0.02357851
0.02357851
0.02357851
0.02357851
0.02357851
0.02357851
0.02357851
0.02357851
0.02357851
0.02357851
0.02357851
0.02357851
0.02357851
0.02357851
0.02357851
0.02357851
0.02357851
0.02357851
0.02357851
0.02357851
0.02357851
0.02357851
0.02357851
0.02357851
0.02357851
0.02357851
0.02357851
0.02357851
0.02357851
0.02357851
0.02357851
0.02357851
0.02357851
0.02357851
0.02357851
0.02357851
0.02357851
0.02357851
0.02357851
0.02357851
0.02357851
0.02357851
0.02357851
0.02357851
0.02357851
0.02357851
0.02357851
0.02357851
0.02357851
0.02357851
0.02357851
0.02357851
0.02357851
0.02357851
0.02357851
0.02357851
0.02357851
0.02357851
0.02357851
0.02357851
0.02357851
0.02357851
0.02357851
0.02357851
0.02357851
0.02357851
0.02357851
0.02357851
0.02357851
0.02357851
0.02357851
0.02357851
0.02357851
0.02357851
0.02357851
0.02357851
0.02357851
0.02357851
0.02357851
0.02357851
0.02357851
0.02357851
0.02357851
0.02357851
0.02357851
0.02357851
0.02357851
0.02357851
0.02357851
0.02357851
0.02357851
0.02357851
0.02357851
0.02357851
0.02357851
0.02357851
0.02357851
0.02357851
0.02357851
0.02357851
0.02357851
0.02357851
0.02357851
0.02357851
0.02357851
0.02357851
0.02357851
0.02357851
0.02357851
0.02357851
0.02357851
0.02357851
0.02357851
0.02357851
0.02357851
0.02357851
0.02357851
0.02357851
0.02357851
0.02357851
0.02357851
0.02357851
0.02357851
0.02357851
0.02357851
0.02357851
0.02357851
0.02357851
0.02357851
0.02357851
0.02357851
0.02357851
0.02357851
0.02357851
0.02357851
0.02357851
0.02357851
0.02357851
0.02357851
0.02357851
0.02357851
0.02357851
0.02357851
0.02357851
0.02357851
0.02357851
0.02357851
0.02357851
0.02357851
0.02357851
0.02357851
0.02357851
0.02357851
0.02357851
0.02357851
0.02357851
0.02357851
0.02357851
0.02357851
0.02357851
0.02357851
0.02357851
0.02357851
0.02357851
0.02357851
0.02357851
0.02357851
0.02357851
0.02357851
0.02357851
0.02357851
0.02357851
0.02357851
0.02357851
0.02357851
0.02357851
0.02357851
0.02357851
0.02357851
0.02357851
0.02357851
0.02357851
0.02357851
0.02357851
0.02357851
0.02357851


VECTORS d1 FLOAT
0 0.801567 0.597905
-0.01035394 0.8066245 0.5909736
-0.0207032 0.8115146 0.5839653
-0.03104542 0.8162372 0.5768822
-0.04137827 0.8207922 0.5697263
-0.05169944 0.8251796 0.5624997
-0.06200668 0.8293994 0.5552043
-0.07229773 0.8334517 0.5478424
-0.08257042 0.8373367 0.5404159
-0.09282258 0.8410546 0.532927
-0.1030521 0.8446055 0.5253777
-0.1132568 0.8479899 0.5177702
-0.1234348 0.8512081 0.5101065
-0.1335839 0.8542604 0.5023887
-0.1437023 0.8571474 0.494619
-0.153788 0.8598695 0.4867994
-0.1638391 0.8624273 0.478932
-0.1738537 0.8648214 0.471019
-0.18383 0.8670524 0.4630623
-0.1937663 0.8691209 0.4550643
-0.2036608 0.8710278 0.4470268
-0.2135119 0.8727737 0.4389519
-0.2233178 0.8743594 0.4308419
-0.233077 0.8757859 0.4226986
-0.2427879 0.877054 0.4145243
-0.252449 0.8781645 0.4063208
-0.2620589 0.8791185 0.3980902
-0.2716159 0.8799169 0.3898347
-0.2811189 0.8805607 0.3815561
-0.2905663 0.881051 0.3732564
-0.299957 0.8813888 0.3649377
-0.3092895 0.8815753 0.356602
-0.3185628 0.8816116 0.3482511
-0.3277755 0.8814988 0.339887
-0.3369266 0.8812381 0.3315116
-0.3460148 0.8808308 0.3231268
-0.3550393 0.880278 0.3147345
-0.3639988 0.879581 0.3063366
-0.3728925 0.8787411 0.297935
-0.3817194 0.8777596 0.2895314
-0.3904785 0.8766378 0.2811276
-0.399169 0.875377 0.2727255
-0.4077901 0.8739786 0.2643268
-0.4163409 0.8724439 0.2559333
-0.4248207 0.8707744 0.2475467
-0.4332288 0.8689713 0.2391687
-0.4415645 0.8670362 0.230801
-0.4498271 0.8649704 0.2224452
-0.458016 0.8627753 0.214103
-0.4661307 0.8604524 0.2057761
-0.4741706 0.8580032 0.1974659
-0.4821351 0.8554291 0.1891741
-0.4900238 0.8527315 0.1809023
-0.4978364 0.8499119 0.1726519
-0.5055722 0.8469719 0.1644245
-0.513231 0.8439128 0.1562215
-0.5208124 0.8407361 0.1480445
-0.5283162 0.8374434 0.1398948
-0.5357419 0.8340361 0.1317738
-0.5430894 0.8305158 0.123683
-0.5503583 0.8268838 0.1156237
-0.5575486 0.8231418 0.1075972
-0.5646601 0.8192911 0.09960497
-0.5716925 0.8153332 0.09164815
-0.5786458 0.8112698 0.08372808
-0.5855199 0.8071021 0.075846
-0.5923146 0.8028318 0.06800314
-0.59903 0.7984603 0.06020069
-0.6056661 0.7939891 0.05243985
-0.6122228 0.7894196 0.04472177
-0.6187001 0.7847532 0.03704758
-0.6250982 0.7799916 0.02941841
-0.631417 0.775136 0.02183534
-0.6376566 0.770188 0.01429944
-0.6438173 0.765149 0.006811763
-0.649899 0.7600203 -0.0006266697
-0.6559019 0.7548036 -0.008014851
-0.6618263 0.7495 -0.0153518
-0.6676722 0.7441111 -0.02263655
-0.6734399 0.7386383 -0.02986816
-0.6791296 0.7330829 -0.03704571
-0.6847416 0.7274463 -0.0441683
-0.690276 0.7217299 -0.05123505
-0.6957331 0.715935 -0.0582451
-0.7011133 0.710063 -0.0651976
-0.7064168 0.7041151 -0.07209174
-0.7116438 0.6980928 -0.07892671
-0.7167948 0.6919974 -0.08570172
-0.72187 0.6858301 -0.09241602
-0.7268698 0.6795922 -0.09906885
-0.7317946 0.6732851 -0.1056595
-0.7366446 0.6669099 -0.1121872
-0.7414202 0.6604679 -0.1186514
-0.7461219 0.6539604 -0.1250512
-0.7507501 0.6473886 -0.1313861
-0.755305 0.6407537 -0.1376555
-0.7597871 0.634057 -0.1438586
-0.7641969 0.6272995 -0.1499949
-0.7685347 0.6204825 -0.1560639
-0.7728009 0.6136072 -0.1620648
-0.776996 0.6066746 -0.1679972
-0.7811205 0.599686 -0.1738604
-0.7851747 0.5926425 -0.1796541
-0.7891591 0.5855451 -0.1853775
-0.7930741 0.5783951 -0.1910304
-0.7969202 0.5711934 -0.196612
-0.8006979 0.5639411 -0.202122
-0.8044075 0.5566394 -0.20756
-0.8080496 0.5492892 -0.2129254
-0.8116246 0.5418916 -0.2182178
-0.815133 0.5344476 -0.2234368
-0.8185752 0.5269582 -0.2285819
-0.8219517 0.5194245 -0.2336529
-0.8252629 0.5118474 -0.2386492
-0.8285093 0.5042279 -0.2435705
-0.8316914 0.4965669 -0.2484165
-0.8348096 0.4888654 -0.2531867
-0.8378644 0.4811244 -0.2578809
-0.8408562 0.4733447 -0.2624987
-0.8437856 0.4655273 -0.2670397
-0.8466528 0.4576731 -0.2715037
-0.8494585 0.449783 -0.2758904
-0.852203 0.4418578 -0.2801994
-0.8548868 0.4338984 -0.2844306
-0.8575103 0.4259057 -0.2885835
-0.860074 0.4178805 -0.2926579
-0.8625782 0.4098237 -0.2966536
-0.8650235 0.401736 -0.3005703
-0.8674102 0.3936184 -0.3044079
-0.8697388 0.3854715 -0.3081659
-0.8720096 0.3772962 -0.3118443
-0.8742231 0.3690933 -0.3154428
-0.8763797 0.3608635 -0.3189612
-0.8784797 0.3526076 -0.3223992
-0.8805236 0.3443264 -0.3257568
-0.8825118 0.3360206 -0.3290337
-0.8844445 0.3276909 -0.3322297
-0.8863223 0.3193381 -0.3353446
-0.8881454 0.3109629 -0.3383783
-0.8899142 0.3025659 -0.3413307
-0.891629 0.294148 -0.3442015
-0.8932903 0.2857097 -0.3469906
-0.8948982 0.2772518 -0.3496978
-0.8964532 0.268775 -0.3523231
-0.8979556 0.2602798 -0.3548663
-0.8994057 0.2517671 -0.3573273
-0.9008037 0.2432373 -0.3597059
-0.90215 0.2346913 -0.362002
-0.9034448 0.2261295 -0.3642156
-0.9046884 0.2175528 -0.3663465
-0.9058811 0.2089616 -0.3683945
-0.9070231 0.2003566 -0.3703597
-0.9081147 0.1917384 -0.372242
-0.9091561 0.1831077 -0.3740411
-0.9101475 0.1744651 -0.3757571
-0.9110892 0.165811 -0.3773899
-0.9119814 0.1571463 -0.3789394
-0.9128242 0.1484713 -0.3804055
-0.9136178 0.1397868 -0.3817881
-0.9143624 0.1310934 -0.3830873
-0.9150583 0.1223915 -0.3843029
-0.9157054 0.1136817 -0.3854349
-0.916304 0.1049647 -0.3864833
-0.9168543 0.09624107 -0.3874479
-0.9173563 0.08751127 -0.3883288
-0.9178101 0.07877593 -0.3891259
-0.9182159 0.07003558 -0.3898392
-0.9185737 0.06129081 -0.3904687
-0.9188836 0.05254216 -0.3910143
-0.9191458 0.0437902 -0.391476
-0.9193602 0.03503547 -0.3918537
-0.9195269 0.02627853 -0.3921476
-0.919646 0.01751994 -0.3923575
-0.9197174 0.008760247 -0.3924834
-0.9197412 -2.847722e-14 -0.3925254
-0.9197174 -0.008760247 -0.3924834
-0.919646 -0.01751994 -0.3923575
-0.9195269 -0.02627853 -0.3921476
-0.9193602 -0.03503547 -0.3918537
-0.9191458 -0.0437902 -0.391476
-0.9188836 -0.05254216 -0.3910143
-0.9185737 -0.06129081 -0.3904687
-0.9182159 -0.07003558 -0.3898392
-0.9178101 -0.07877593 -0.3891259
-0.9173563 -0.08751127 -0.3883288
-0.9168543 -0.09624107 -0.3874479
-0.916304 -0.1049647 -0.3864833
-0.9157054 -0.1136817 -0.3854349
-0.9150583 -0.1223915 -0.3843029
-0.9143624 -0.1310934 -0.3830873
-0.9136178 -0.1397868 -0.3817881
-0.9128242 -0.1484713 -0.3804055
-0.9119814 -0.1571463 -0.3789394
-0.9110892 -0.165811 -0.3773899
-0.9101475 -0.1744651 -0.3757571
-0.9091561 -0.1831077 -0.3740411
-0.9081147 -0.1917384 -0.372242
-0.9070231 -0.2003566 -0.3703597
-0.9058811 -0.2089616 -0.3683945
-0.9046884 -0.2175528 -0.3663465
-0.9034448 -0.2261295 -0.3642156
-0.90215 -0.2346913 -0.362002
-0.9008037 -0.2432373 -0.3597059
-0.8994057 -0.2517671 -0.3573273
-0.8979556 -0.2602798 -0.3548663
-0.8964532 -0.268775 -0.3523231
-0.8948982 -0.2772518 -0.3496978
-0.8932903 -0.2857097 -0.3469906
-0.891629 -0.294148 -0.3442015
-0.8899142 -0.3025659 -0.3413307
-0.8881454 -0.3109629 -0.3383783
-0.8863223 -0.3193381 -0.3353446
-0.8844445 -0.3276909 -0.3322297
-0.8825118 -0.3360206 -0.3290337
-0.8805236 -0.3443264 -0.3257568
-0.8784797 -0.3526076 -0.3223992
-0.8763797 -0.3608635 -0.3189612
-0.8742231 -0.3690933 -0.3154428
-0.8720096 -0.3772962 -0.3118443
-0.8697388 -0.3854715 -0.3081659
-0.8674102 -0.3936184 -0.3044079
-0.8650235 -0.401736 -0.3005703
-0.8625782 -0.4098237 -0.2966536
-0.860074 -0.4178805 -0.2926579
-0.8575103 -0.4259057 -0.2885835