# vtk DataFile Version 2.0
Written badly by Kevin Korner
ASCII
DATASET POLYDATA
POINTS 350 FLOAT
0 0 0
0.00286533 0 0
0.005730539 2.616985e-05 -1.716395e-06
0.008595389 7.850372e-05 -5.125767e-06
0.01145964 0.0001569936 -1.020466e-05
0.01432305 0.0002616292 -1.692958e-05
0.01718538 0.0003923982 -2.527701e-05
0.02004639 0.0005492858 -3.522338e-05
0.02290585 0.0007322752 -4.674512e-05
0.02576351 0.0009413475 -5.98186e-05
0.02861914 0.001176481 -7.44202e-05
0.0314725 0.001437653 -9.052626e-05
0.03432335 0.001724838 -0.0001081131
0.03717145 0.002038007 -0.0001271571
0.04001656 0.002377132 -0.0001476345
0.04285846 0.002742179 -0.0001695215
0.0456969 0.003133115 -0.0001927946
0.04853165 0.003549903 -0.00021743
0.05136247 0.003992504 -0.0002434038
0.05418912 0.004460879 -0.0002706926
0.05701138 0.004954984 -0.0002992724
0.05982901 0.005474773 -0.0003291197
0.06264178 0.006020201 -0.0003602107
0.06544945 0.006591218 -0.0003925217
0.06825179 0.007187773 -0.000426029
0.07104857 0.007809811 -0.0004607091
0.07383956 0.008457278 -0.0004965382
0.07662453 0.009130117 -0.0005334928
0.07940324 0.009828267 -0.0005715492
0.08217547 0.01055167 -0.000610684
0.084941 0.01130025 -0.0006508734
0.08769958 0.01207396 -0.0006920942
0.090451 0.01287271 -0.0007343227
0.09319503 0.01369645 -0.0007775357
0.09593145 0.0145451 -0.0008217095
0.09866002 0.01541859 -0.000866821
0.1013805 0.01631683 -0.0009128469
0.1040927 0.01723976 -0.0009597638
0.1067964 0.01818729 -0.001007549
0.1094914 0.01915934 -0.001056178
0.1121774 0.02015583 -0.001105629
0.1148543 0.02117666 -0.001155879
0.1175217 0.02222176 -0.001206904
0.1201796 0.02329103 -0.001258682
0.1228276 0.02438438 -0.001311189
0.1254655 0.02550171 -0.001364404
0.1280932 0.02664294 -0.001418303
0.1307105 0.02780796 -0.001472864
0.133317 0.02899667 -0.001528063
0.1359126 0.03020897 -0.001583879
0.1384971 0.03144476 -0.001640289
0.1410703 0.03270394 -0.001697271
0.143632 0.03398639 -0.001754803
0.1461819 0.03529201 -0.001812862
0.1487199 0.03662069 -0.001871426
0.1512457 0.03797231 -0.001930473
0.1537592 0.03934675 -0.001989981
0.1562601 0.04074392 -0.002049929
0.1587482 0.04216367 -0.002110295
0.1612233 0.04360591 -0.002171057
0.1636853 0.04507049 -0.002232193
0.1661339 0.04655731 -0.002293683
0.168569 0.04806623 -0.002355504
0.1709903 0.04959714 -0.002417636
0.1733976 0.05114989 -0.002480058
0.1757907 0.05272436 -0.002542748
0.1781696 0.05432041 -0.002605686
0.1805338 0.05593793 -0.00266885
0.1828834 0.05757676 -0.002732221
0.185218 0.05923677 -0.002795778
0.1875375 0.06091782 -0.002859499
0.1898417 0.06261978 -0.002923366
0.1921304 0.0643425 -0.002987358
0.1944035 0.06608583 -0.003051454
0.1966607 0.06784963 -0.003115635
0.1989019 0.06963376 -0.003179882
0.2011268 0.07143807 -0.003244173
0.2033354 0.0732624 -0.003308491
0.2055274 0.07510661 -0.003372815
0.2077027 0.07697054 -0.003437126
0.209861 0.07885403 -0.003501406
0.2120022 0.08075694 -0.003565635
0.2141262 0.0826791 -0.003629794
0.2162328 0.08462036 -0.003693865
0.2183217 0.08658054 -0.003757829
0.2203929 0.08855951 -0.003821668
0.2224461 0.09055707 -0.003885363
0.2244813 0.09257309 -0.003948897
0.2264981 0.09460738 -0.004012252
0.2284966 0.09665978 -0.004075409
0.2304764 0.09873012 -0.004138351
0.2324375 0.1008182 -0.004201062
0.2343798 0.1029239 -0.004263522
0.2363029 0.1050471 -0.004325716
0.2382069 0.1071875 -0.004387627
0.2400915 0.1093449 -0.004449236
0.2419566 0.1115193 -0.004510529
0.243802 0.1137103 -0.004571488
0.2456276 0.115918 -0.004632097
0.2474333 0.1181419 -0.004692341
0.2492188 0.1203821 -0.004752202
0.2509842 0.1226382 -0.004811665
0.2527291 0.1249102 -0.004870715
0.2544536 0.1271977 -0.004929336
0.2561573 0.1295008 -0.004987514
0.2578403 0.131819 -0.005045232
0.2595024 0.1341523 -0.005102476
0.2611434 0.1365005 -0.005159231
0.2627633 0.1388634 -0.005215483
0.2643618 0.1412407 -0.005271217
0.2659389 0.1436323 -0.005326419
0.2674944 0.146038 -0.005381076
0.2690282 0.1484577 -0.005435173
0.2705402 0.150891 -0.005488697
0.2720303 0.1533378 -0.005541634
0.2734983 0.1557979 -0.005593972
0.2749442 0.1582712 -0.005645697
0.2763678 0.1607573 -0.005696796
0.277769 0.1632562 -0.005747257
0.2791477 0.1657675 -0.005797067
0.2805038 0.1682911 -0.005846214
0.2818372 0.1708269 -0.005894687
0.2831477 0.1733745 -0.005942472
0.2844353 0.1759337 -0.005989559
0.2856999 0.1785045 -0.006035937
0.2869414 0.1810865 -0.006081593
0.2881596 0.1836796 -0.006126517
0.2893545 0.1862835 -0.006170698
0.290526 0.188898 -0.006214125
0.291674 0.191523 -0.006256789
0.2927984 0.1941582 -0.006298678
0.2938991 0.1968033 -0.006339784
0.294976 0.1994583 -0.006380095
0.296029 0.2021228 -0.006419603
0.2970581 0.2047967 -0.006458297
0.2980632 0.2074797 -0.00649617
0.2990442 0.2101716 -0.006533212
0.300001 0.2128722 -0.006569414
0.3009336 0.2155813 -0.006604768
0.3018418 0.2182987 -0.006639266
0.3027256 0.2210241 -0.006672898
0.3035849 0.2237573 -0.006705659
0.3044197 0.2264981 -0.006737539
0.30523 0.2292464 -0.006768532
0.3060155 0.2320017 -0.00679863
0.3067763 0.2347641 -0.006827826
0.3075123 0.2375331 -0.006856114
0.3082235 0.2403086 -0.006883487
0.3089097 0.2430905 -0.006909938
0.309571 0.2458783 -0.006935462
0.3102073 0.248672 -0.006960053
0.3108186 0.2514713 -0.006983704
0.3114047 0.2542759 -0.007006411
0.3119657 0.2570857 -0.007028168
0.3125015 0.2599004 -0.007048971
0.313012 0.2627198 -0.007068814
0.3134973 0.2655437 -0.007087693
0.3139572 0.2683718 -0.007105604
0.3143918 0.2712039 -0.007122542
0.314801 0.2740399 -0.007138504
0.3151848 0.2768793 -0.007153487
0.3155432 0.2797221 -0.007167485
0.315876 0.282568 -0.007180498
0.3161834 0.2854168 -0.00719252
0.3164652 0.2882682 -0.007203551
0.3167215 0.291122 -0.007213586
0.3169522 0.2939781 -0.007222625
0.3171573 0.296836 -0.007230664
0.3173368 0.2996957 -0.007237703
0.3174907 0.3025569 -0.007243739
0.317619 0.3054194 -0.007248771
0.3177216 0.3082828 -0.007252798
0.3177986 0.3111471 -0.007255819
0.3178499 0.314012 -0.007257834
0.3178755 0.3168772 -0.007258841
0.3178755 0.3197426 -0.007258841
0.3178499 0.3226078 -0.007257834
0.3177986 0.3254726 -0.007255819
0.3177216 0.3283369 -0.007252798
0.317619 0.3312004 -0.007248771
0.3174907 0.3340629 -0.007243739
0.3173368 0.3369241 -0.007237703
0.3171573 0.3397837 -0.007230664
0.3169522 0.3426417 -0.007222625
0.3167215 0.3454977 -0.007213586
0.3164652 0.3483516 -0.007203551
0.3161834 0.351203 -0.00719252
0.315876 0.3540517 -0.007180498
0.3155432 0.3568976 -0.007167485
0.3151848 0.3597404 -0.007153487
0.314801 0.3625799 -0.007138504
0.3143918 0.3654158 -0.007122542
0.3139572 0.368248 -0.007105604
0.3134973 0.3710761 -0.007087693
0.313012 0.3739 -0.007068814
0.3125015 0.3767194 -0.007048971
0.3119657 0.3795341 -0.007028168
0.3114047 0.3823439 -0.007006411
0.3108186 0.3851485 -0.006983704
0.3102073 0.3879478 -0.006960053
0.309571 0.3907415 -0.006935462
0.3089097 0.3935293 -0.006909938
0.3082235 0.3963111 -0.006883487
0.3075123 0.3990867 -0.006856114
0.3067763 0.4018557 -0.006827826
0.3060155 0.404618 -0.00679863
0.30523 0.4073734 -0.006768532
0.3044197 0.4101216 -0.006737539
0.3035849 0.4128625 -0.006705659
0.3027256 0.4155957 -0.006672898
0.3018418 0.4183211 -0.006639266
0.3009336 0.4210385 -0.006604768
0.300001 0.4237476 -0.006569414
0.2990442 0.4264482 -0.006533212
0.2980632 0.4291401 -0.00649617
0.2970581 0.4318231 -0.006458297
0.296029 0.434497 -0.006419603
0.294976 0.4371615 -0.006380095
0.2938991 0.4398164 -0.006339784
0.2927984 0.4424616 -0.006298678
0.291674 0.4450968 -0.006256789
0.290526 0.4477217 -0.006214125
0.2893545 0.4503363 -0.006170698
0.2881596 0.4529402 -0.006126517
0.2869414 0.4555333 -0.006081593
0.2856999 0.4581153 -0.006035937
0.2844353 0.460686 -0.005989559
0.2831477 0.4632453 -0.005942472
0.2818372 0.4657929 -0.005894687
0.2805038 0.4683286 -0.005846214
0.2791477 0.4708523 -0.005797067
0.277769 0.4733636 -0.005747257
0.2763678 0.4758624 -0.005696796
0.2749442 0.4783486 -0.005645697
0.2734983 0.4808218 -0.005593972
0.2720303 0.483282 -0.005541634
0.2705402 0.4857288 -0.005488697
0.2690282 0.4881621 -0.005435173
0.2674944 0.4905817 -0.005381076
0.2659389 0.4929874 -0.005326419
0.2643618 0.4953791 -0.005271217
0.2627633 0.4977564 -0.005215483
0.2611434 0.5001193 -0.005159231
0.2595024 0.5024675 -0.005102476
0.2578403 0.5048008 -0.005045232
0.2561573 0.507119 -0.004987514
0.2544536 0.509422 -0.004929336
0.2527291 0.5117096 -0.004870715
0.2509842 0.5139816 -0.004811665
0.2492188 0.5162377 -0.004752202
0.2474333 0.5184778 -0.004692341
0.2456276 0.5207018 -0.004632097
0.243802 0.5229094 -0.004571488
0.2419566 0.5251005 -0.004510529
0.2400915 0.5272749 -0.004449236
0.2382069 0.5294323 -0.004387627
0.2363029 0.5315727 -0.004325716
0.2343798 0.5336958 -0.004263522
0.2324375 0.5358015 -0.004201062
0.2304764 0.5378897 -0.004138351
0.2284966 0.53996 -0.004075409
0.2264981 0.5420124 -0.004012252
0.2244813 0.5440467 -0.003948897
0.2224461 0.5460627 -0.003885363
0.2203929 0.5480603 -0.003821668
0.2183217 0.5500392 -0.003757829
0.2162328 0.5519994 -0.003693865
0.2141262 0.5539407 -0.003629794
0.2120022 0.5558628 -0.003565635
0.209861 0.5577657 -0.003501406
0.2077027 0.5596492 -0.003437126
0.2055274 0.5615132 -0.003372815
0.2033354 0.5633574 -0.003308491
0.2011268 0.5651817 -0.003244173
0.1989019 0.566986 -0.003179882
0.1966607 0.5687701 -0.003115635
0.1944035 0.5705339 -0.003051454
0.1921304 0.5722773 -0.002987358
0.1898417 0.574 -0.002923366
0.1875375 0.5757019 -0.002859499
0.185218 0.577383 -0.002795778
0.1828834 0.579043 -0.002732221
0.1805338 0.5806818 -0.00266885
0.1781696 0.5822994 -0.002605686
0.1757907 0.5838954 -0.002542748
0.1733976 0.5854699 -0.002480058
0.1709903 0.5870226 -0.002417636
0.168569 0.5885535 -0.002355504
0.1661339 0.5900625 -0.002293683
0.1636853 0.5915493 -0.002232193
0.1612233 0.5930139 -0.002171057
0.1587482 0.5944561 -0.002110295
0.1562601 0.5958759 -0.002049929
0.1537592 0.597273 -0.001989981
0.1512457 0.5986475 -0.001930473
0.1487199 0.5999991 -0.001871426
0.1461819 0.6013278 -0.001812862
0.143632 0.6026334 -0.001754803
0.1410703 0.6039158 -0.001697271
0.1384971 0.605175 -0.001640289
0.1359126 0.6064108 -0.001583879
0.133317 0.6076231 -0.001528063
0.1307105 0.6088118 -0.001472864
0.1280932 0.6099768 -0.001418303
0.1254655 0.6111181 -0.001364404
0.1228276 0.6122354 -0.001311189
0.1201796 0.6133287 -0.001258682
0.1175217 0.614398 -0.001206904
0.1148543 0.6154431 -0.001155879
0.1121774 0.6164639 -0.001105629
0.1094914 0.6174604 -0.001056178
0.1067964 0.6184325 -0.001007549
0.1040927 0.61938 -0.0009597638
0.1013805 0.6203029 -0.0009128469
0.09866002 0.6212012 -0.000866821
0.09593145 0.6220747 -0.0008217095
0.09319503 0.6229233 -0.0007775357
0.090451 0.6237471 -0.0007343227
0.08769958 0.6245458 -0.0006920942
0.084941 0.6253195 -0.0006508734
0.08217547 0.6260681 -0.000610684
0.07940324 0.6267915 -0.0005715492
0.07662453 0.6274897 -0.0005334928
0.07383956 0.6281625 -0.0004965382
0.07104857 0.62881 -0.0004607091
0.06825179 0.629432 -0.000426029
0.06544945 0.6300286 -0.0003925217
0.06264178 0.6305996 -0.0003602107
0.05982901 0.631145 -0.0003291197
0.05701138 0.6316648 -0.0002992724
0.05418912 0.6321589 -0.0002706926
0.05136247 0.6326273 -0.0002434038
0.04853165 0.6330699 -0.00021743
0.0456969 0.6334867 -0.0001927946
0.04285846 0.6338776 -0.0001695215
0.04001656 0.6342426 -0.0001476345
0.03717145 0.6345818 -0.0001271571
0.03432335 0.6348949 -0.0001081131
0.0314725 0.6351821 -9.052626e-05
0.02861914 0.6354433 -7.44202e-05
0.02576351 0.6356784 -5.98186e-05
0.02290585 0.6358875 -4.674512e-05
0.02004639 0.6360705 -3.522338e-05
0.01718538 0.6362274 -2.527701e-05
0.01432305 0.6363581 -1.692958e-05
0.01145964 0.6364628 -1.020466e-05
0.008595389 0.6365413 -5.125767e-06
0.005730539 0.6365936 -1.716395e-06
0.00286533 0.6366198 0
0 0.6366198 0

LINES 349 1047
2 0 1
2 1 2
2 2 3
2 3 4
2 4 5
2 5 6
2 6 7
2 7 8
2 8 9
2 9 10
2 10 11
2 11 12
2 12 13
2 13 14
2 14 15
2 15 16
2 16 17
2 17 18
2 18 19
2 19 20
2 20 21
2 21 22
2 22 23
2 23 24
2 24 25
2 25 26
2 26 27
2 27 28
2 28 29
2 29 30
2 30 31
2 31 32
2 32 33
2 33 34
2 34 35
2 35 36
2 36 37
2 37 38
2 38 39
2 39 40
2 40 41
2 41 42
2 42 43
2 43 44
2 44 45
2 45 46
2 46 47
2 47 48
2 48 49
2 49 50
2 50 51
2 51 52
2 52 53
2 53 54
2 54 55
2 55 56
2 56 57
2 57 58
2 58 59
2 59 60
2 60 61
2 61 62
2 62 63
2 63 64
2 64 65
2 65 66
2 66 67
2 67 68
2 68 69
2 69 70
2 70 71
2 71 72
2 72 73
2 73 74
2 74 75
2 75 76
2 76 77
2 77 78
2 78 79
2 79 80
2 80 81
2 81 82
2 82 83
2 83 84
2 84 85
2 85 86
2 86 87
2 87 88
2 88 89
2 89 90
2 90 91
2 91 92
2 92 93
2 93 94
2 94 95
2 95 96
2 96 97
2 97 98
2 98 99
2 99 100
2 100 101
2 101 102
2 102 103
2 103 104
2 104 105
2 105 106
2 106 107
2 107 108
2 108 109
2 109 110
2 110 111
2 111 112
2 112 113
2 113 114
2 114 115
2 115 116
2 116 117
2 117 118
2 118 119
2 119 120
2 120 121
2 121 122
2 122 123
2 123 124
2 124 125
2 125 126
2 126 127
2 127 128
2 128 129
2 129 130
2 130 131
2 131 132
2 132 133
2 133 134
2 134 135
2 135 136
2 136 137
2 137 138
2 138 139
2 139 140
2 140 141
2 141 142
2 142 143
2 143 144
2 144 145
2 145 146
2 146 147
2 147 148
2 148 149
2 149 150
2 150 151
2 151 152
2 152 153
2 153 154
2 154 155
2 155 156
2 156 157
2 157 158
2 158 159
2 159 160
2 160 161
2 161 162
2 162 163
2 163 164
2 164 165
2 165 166
2 166 167
2 167 168
2 168 169
2 169 170
2 170 171
2 171 172
2 172 173
2 173 174
2 174 175
2 175 176
2 176 177
2 177 178
2 178 179
2 179 180
2 180 181
2 181 182
2 182 183
2 183 184
2 184 185
2 185 186
2 186 187
2 187 188
2 188 189
2 189 190
2 190 191
2 191 192
2 192 193
2 193 194
2 194 195
2 195 196
2 196 197
2 197 198
2 198 199
2 199 200
2 200 201
2 201 202
2 202 203
2 203 204
2 204 205
2 205 206
2 206 207
2 207 208
2 208 209
2 209 210
2 210 211
2 211 212
2 212 213
2 213 214
2 214 215
2 215 216
2 216 217
2 217 218
2 218 219
2 219 220
2 220 221
2 221 222
2 222 223
2 223 224
2 224 225
2 225 226
2 226 227
2 227 228
2 228 229
2 229 230
2 230 231
2 231 232
2 232 233
2 233 234
2 234 235
2 235 236
2 236 237
2 237 238
2 238 239
2 239 240
2 240 241
2 241 242
2 242 243
2 243 244
2 244 245
2 245 246
2 246 247
2 247 248
2 248 249
2 249 250
2 250 251
2 251 252
2 252 253
2 253 254
2 254 255
2 255 256
2 256 257
2 257 258
2 258 259
2 259 260
2 260 261
2 261 262
2 262 263
2 263 264
2 264 265
2 265 266
2 266 267
2 267 268
2 268 269
2 269 270
2 270 271
2 271 272
2 272 273
2 273 274
2 274 275
2 275 276
2 276 277
2 277 278
2 278 279
2 279 280
2 280 281
2 281 282
2 282 283
2 283 284
2 284 285
2 285 286
2 286 287
2 287 288
2 288 289
2 289 290
2 290 291
2 291 292
2 292 293
2 293 294
2 294 295
2 295 296
2 296 297
2 297 298
2 298 299
2 299 300
2 300 301
2 301 302
2 302 303
2 303 304
2 304 305
2 305 306
2 306 307
2 307 308
2 308 309
2 309 310
2 310 311
2 311 312
2 312 313
2 313 314
2 314 315
2 315 316
2 316 317
2 317 318
2 318 319
2 319 320
2 320 321
2 321 322
2 322 323
2 323 324
2 324 325
2 325 326
2 326 327
2 327 328
2 328 329
2 329 330
2 330 331
2 331 332
2 332 333
2 333 334
2 334 335
2 335 336
2 336 337
2 337 338
2 338 339
2 339 340
2 340 341
2 341 342
2 342 343
2 343 344
2 344 345
2 345 346
2 346 347
2 347 348
2 348 349


POINT_DATA 350
SCALARS a FLOAT 1
LOOKUP_TABLE default
0.0005894628
0.0005894628
0.0005894628
0.0005894628
0.0005894628
0.0005894628
0.0005894628
0.0005894628
0.0005894628
0.0005894628
0.0005894628
0.0005894628
0.0005894628
0.0005894628
0.0005894628
0.0005894628
0.0005894628
0.0005894628
0.0005894628
0.0005894628
0.0005894628
0.0005894628
0.0005894628
0.0005894628
0.0005894628
0.0005894628
0.0005894628
0.0005894628
0.0005894628
0.0005894628
0.0005894628
0.0005894628
0.0005894628
0.0005894628
0.0005894628
0.0005894628
0.0005894628
0.0005894628
0.0005894628
0.0005894628
0.0005894628
0.0005894628
0.0005894628
0.0005894628
0.0005894628
0.0005894628
0.0005894628
0.0005894628
0.0005894628
0.0005894628
0.0005894628
0.0005894628
0.0005894628
0.0005894628
0.0005894628
0.0005894628
0.0005894628
0.0005894628
0.0005894628
0.0005894628
0.0005894628
0.0005894628
0.0005894628
0.0005894628
0.0005894628
0.0005894628
0.0005894628
0.0005894628
0.0005894628
0.0005894628
0.0005894628
0.0005894628
0.0005894628
0.0005894628
0.0005894628
0.0005894628
0.0005894628
0.0005894628
0.0005894628
0.0005894628
0.0005894628
0.0005894628
0.0005894628
0.0005894628
0.0005894628
0.0005894628
0.0005894628
0.0005894628
0.0005894628
0.0005894628
0.0005894628
0.0005894628
0.0005894628
0.0005894628
0.0005894628
0.0005894628
0.0005894628
0.0005894628
0.0005894628
0.0005894628
0.0005894628
0.0005894628
0.0005894628
0.0005894628
0.0005894628
0.0005894628
0.0005894628
0.0005894628
0.0005894628
0.0005894628
0.0005894628
0.0005894628
0.0005894628
0.0005894628
0.0005894628
0.0005894628
0.0005894628
0.0005894628
0.0005894628
0.0005894628
0.0005894628
0.0005894628
0.0005894628
0.0005894628
0.0005894628
0.0005894628
0.0005894628
0.0005894628
0.0005894628
0.0005894628
0.0005894628
0.0005894628
0.0005894628
0.0005894628
0.0005894628
0.0005894628
0.0005894628
0.0005894628
0.0005894628
0.0005894628
0.0005894628
0.0005894628
0.0005894628
0.0005894628
0.0005894628
0.0005894628
0.0005894628
0.0005894628
0.0005894628
0.0005894628
0.0005894628
0.0005894628
0.0005894628
0.0005894628
0.0005894628
0.0005894628
0.0005894628
0.0005894628
0.0005894628
0.0005894628
0.0005894628
0.0005894628
0.0005894628
0.0005894628
0.0005894628
0.0005894628
0.0005894628
0.0005894628
0.0005894628
0.0005894628
0.0005894628
0.0005894628
0.0005894628
0.0005894628
0.0005894628
0.0005894628
0.0005894628
0.0005894628
0.0005894628
0.0005894628
0.0005894628
0.0005894628
0.0005894628
0.0005894628
0.0005894628
0.0005894628
0.0005894628
0.0005894628
0.0005894628
0.0005894628
0.0005894628
0.0005894628
0.0005894628
0.0005894628
0.0005894628
0.0005894628
0.0005894628
0.0005894628
0.0005894628
0.0005894628
0.0005894628
0.0005894628
0.0005894628
0.0005894628
0.0005894628
0.0005894628
0.0005894628
0.0005894628
0.0005894628
0.0005894628
0.0005894628
0.0005894628
0.0005894628
0.0005894628
0.0005894628
0.0005894628
0.0005894628
0.0005894628
0.0005894628
0.0005894628
0.0005894628
0.0005894628
0.0005894628
0.0005894628
0.0005894628
0.0005894628
0.0005894628
0.0005894628
0.0005894628
0.0005894628
0.0005894628
0.0005894628
0.0005894628
0.0005894628
0.0005894628
0.0005894628
0.0005894628
0.0005894628
0.0005894628
0.0005894628
0.0005894628
0.0005894628
0.0005894628
0.0005894628
0.0005894628
0.0005894628
0.0005894628
0.0005894628
0.0005894628
0.0005894628
0.0005894628
0.0005894628
0.0005894628
0.0005894628
0.0005894628
0.0005894628
0.0005894628
0.0005894628
0.0005894628
0.0005894628
0.0005894628
0.0005894628
0.0005894628
0.0005894628
0.0005894628
0.0005894628
0.0005894628
0.0005894628
0.0005894628
0.0005894628
0.0005894628
0.0005894628
0.0005894628
0.0005894628
0.0005894628
0.0005894628
0.0005894628
0.0005894628
0.0005894628
0.0005894628
0.0005894628
0.0005894628
0.0005894628
0.0005894628
0.0005894628
0.0005894628
0.0005894628
0.0005894628
0.0005894628
0.0005894628
0.0005894628
0.0005894628
0.0005894628
0.0005894628
0.0005894628
0.0005894628
0.0005894628
0.0005894628
0.0005894628
0.0005894628
0.0005894628
0.0005894628
0.0005894628
0.0005894628
0.0005894628
0.0005894628
0.0005894628
0.0005894628
0.0005894628
0.0005894628
0.0005894628
0.0005894628
0.0005894628
0.0005894628
0.0005894628
0.0005894628
0.0005894628
0.0005894628
0.0005894628
0.0005894628
0.0005894628
0.0005894628
0.0005894628
0.0005894628
0.0005894628
0.0005894628
0.0005894628
0.0005894628
0.0005894628
0.0005894628
0.0005894628
0.0005894628
0.0005894628
0.0005894628
0.0005894628
0.0005894628
0.0005894628
0.0005894628
0.0005894628
0.0005894628
0.0005894628
0.0005894628
0.0005894628
0.0005894628
0.0005894628
0.0005894628
0.0005894628
0.0005894628
0.0005894628
0.0005894628


SCALARS b FLOAT 1
LOOKUP_TABLE default
0.02357851
0.02357851
0.02357851
0.02357851
0.02357851
0.02357851
0.02357851
0.02357851
0.02357851
0.02357851
0.02357851
0.02357851
0.02357851
0.02357851
0.02357851
0.02357851
0.02357851
0.02357851
0.02357851
0.02357851
0.02357851
0.02357851
0.02357851
0.02357851
0.02357851
0.02357851
0.02357851
0.02357851
0.02357851
0.02357851
0.02357851
0.02357851
0.02357851
0.02357851
0.02357851
0.02357851
0.02357851
0.02357851
0.02357851
0.02357851
0.02357851
0.02357851
0.02357851
0.02357851
0.02357851
0.02357851
0.02357851
0.02357851
0.02357851
0.02357851
0.02357851
0.02357851
0.02357851
0.02357851
0.02357851
0.02357851
0.02357851
0.02357851
0.02357851
0.02357851
0.02357851
0.02357851
0.02357851
0.02357851
0.02357851
0.02357851
0.02357851
0.02357851
0.02357851
0.02357851
0.02357851
0.02357851
0.02357851
0.02357851
0.02357851
0.02357851
0.02357851
0.02357851
0.02357851
0.02357851
0.02357851
0.02357851
0.02357851
0.02357851
0.02357851
0.02357851
0.02357851
0.02357851
0.02357851
0.02357851
0.02357851
0.02357851
0.02357851
0.02357851
0.02357851
0.02357851
0.02357851
0.02357851
0.02357851
0.02357851
0.02357851
0.02357851
0.02357851
0.02357851
0.02357851
0.02357851
0.02357851
0.02357851
0.02357851
0.02357851
0.02357851
0.02357851
0.02357851
0.02357851
0.02357851
0.02357851
0.02357851
0.02357851
0.02357851
0.02357851
0.02357851
0.02357851
0.02357851
0.02357851
0.02357851
0.02357851
0.02357851
0.02357851
0.02357851
0.02357851
0.02357851
0.02357851
0.02357851
0.02357851
0.02357851
0.02357851
0.02357851
0.02357851
0.02357851
0.02357851
0.02357851
0.02357851
0.02357851
0.02357851
0.02357851
0.02357851
0.02357851
0.02357851
0.02357851
0.02357851
0.02357851
0.02357851
0.02357851
0.02357851
0.02357851
0.02357851
0.02357851
0.02357851
0.02357851
0.02357851
0.02357851
0.02357851
0.02357851
0.02357851
0.02357851
0.02357851
0.02357851
0.02357851
0.02357851
0.02357851
0.02357851
0.02357851
0.02357851
0.02357851
0.02357851
0.02357851
0.02357851
0.02357851
0.02357851
0.02357851
0.02357851
0.02357851
0.02357851
0.02357851
0.02357851
0.02357851
0.02357851
0.02357851
0.02357851
0.02357851
0.02357851
0.02357851
0.02357851
0.02357851
0.02357851
0.02357851
0.02357851
0.02357851
0.02357851
0.02357851
0.02357851
0.02357851
0.02357851
0.02357851
0.02357851
0.02357851
0.02357851
0.02357851
0.02357851
0.02357851
0.02357851
0.02357851
0.02357851
0.02357851
0.02357851
0.02357851
0.02357851
0.02357851
0.02357851
0.02357851
0.02357851
0.02357851
0.02357851
0.02357851
0.02357851
0.02357851
0.02357851
0.02357851
0.02357851
0.02357851
0.02357851
0.02357851
0.02357851
0.02357851
0.02357851
0.02357851
0.02357851
0.02357851
0.02357851
0.02357851
0.02357851
0.02357851
0.02357851
0.02357851
0.02357851
0.02357851
0.02357851
0.02357851
0.02357851
0.02357851
0.02357851
0.02357851
0.02357851
0.02357851
0.02357851
0.02357851
0.02357851
0.02357851
0.02357851
0.02357851
0.02357851
0.02357851
0.02357851
0.02357851
0.02357851
0.02357851
0.02357851
0.02357851
0.02357851
0.02357851
0.02357851
0.02357851
0.02357851
0.02357851
0.02357851
0.02357851
0.02357851
0.02357851
0.02357851
0.02357851
0.02357851
0.02357851
0.02357851
0.02357851
0.02357851
0.02357851
0.02357851
0.02357851
0.02357851
0.02357851
0.02357851
0.02357851
0.02357851
0.02357851
0.02357851
0.02357851
0.02357851
0.02357851
0.02357851
0.02357851
0.02357851
0.02357851
0.02357851
0.02357851
0.02357851
0.02357851
0.02357851
0.02357851
0.02357851
0.02357851
0.02357851
0.02357851
0.02357851
0.02357851
0.02357851
0.02357851
0.02357851
0.02357851
0.02357851
0.02357851
0.02357851
0.02357851
0.02357851
0.02357851
0.02357851
0.02357851
0.02357851
0.02357851
0.02357851
0.02357851
0.02357851
0.02357851
0.02357851
0.02357851
0.02357851
0.02357851
0.02357851
0.02357851
0.02357851
0.02357851
0.02357851
0.02357851
0.02357851
0.02357851
0.02357851
0.02357851
0.02357851
0.02357851
0.02357851
0.02357851


VECTORS d1 FLOAT
0 0.9978245 -0.0659256
-0.009152898 0.9978402 -0.0650466
-0.01830323 0.9977714 -0.06416571
-0.02745023 0.997618 -0.06328302
-0.03659313 0.9973802 -0.06239864
-0.04573115 0.9970581 -0.06151267
-0.05486353 0.9966517 -0.06062521
-0.0639895 0.9961611 -0.05973637
-0.07310831 0.9955864 -0.05884625
-0.08221919 0.9949278 -0.05795494
-0.09132137 0.9941852 -0.05706255
-0.1004141 0.993359 -0.05616919
-0.1094966 0.9924491 -0.05527495
-0.1185682 0.9914557 -0.05437994
-0.1276281 0.990379 -0.05348425
-0.1366754 0.989219 -0.05258799
-0.1457096 0.9879761 -0.05169126
-0.1547298 0.9866502 -0.05079415
-0.1637353 0.9852416 -0.04989678
-0.1727254 0.9837505 -0.04899924
-0.1816992 0.982177 -0.04810163
-0.1906562 0.9805213 -0.04720406
-0.1995955 0.9787836 -0.04630661
-0.2085163 0.9769641 -0.04540939
-0.2174181 0.9750631 -0.04451251
-0.2263 0.9730807 -0.04361605
-0.2351613 0.9710171 -0.04272012
-0.2440013 0.9688726 -0.04182482
-0.2528193 0.9666474 -0.04093025
-0.2616145 0.9643417 -0.04003649
-0.2703863 0.9619558 -0.03914366
-0.279134 0.95949 -0.03825185
-0.2878567 0.9569444 -0.03736116
-0.2965539 0.9543194 -0.03647167
-0.3052248 0.9516153 -0.0355835
-0.3138687 0.9488322 -0.03469674
-0.3224849 0.9459706 -0.03381147
-0.3310727 0.9430306 -0.03292781
-0.3396315 0.9400125 -0.03204583
-0.3481605 0.9369167 -0.03116565
-0.3566591 0.9337435 -0.03028734
-0.3651265 0.9304932 -0.02941102
-0.3735622 0.9271661 -0.02853676
-0.3819654 0.9237625 -0.02766467
-0.3903355 0.9202827 -0.02679484
-0.3986717 0.9167271 -0.02592735
-0.4069735 0.9130961 -0.02506231
-0.4152401 0.9093899 -0.0241998
-0.423471 0.9056089 -0.02333992
-0.4316654 0.9017536 -0.02248275
-0.4398228 0.8978241 -0.02162839
-0.4479424 0.893821 -0.02077693
-0.4560236 0.8897445 -0.01992845
-0.4640658 0.8855951 -0.01908305
-0.4720684 0.8813732 -0.01824081
-0.4800307 0.8770791 -0.01740182
-0.4879521 0.8727132 -0.01656618
-0.495832 0.8682759 -0.01573396
-0.5036698 0.8637677 -0.01490525
-0.5114647 0.8591889 -0.01408015
-0.5192164 0.85454 -0.01325873
-0.526924 0.8498213 -0.01244108
-0.5345871 0.8450334 -0.01162729
-0.542205 0.8401766 -0.01081744
-0.5497772 0.8352513 -0.01001161
-0.557303 0.8302581 -0.009209893
-0.5647819 0.8251973 -0.008412362
-0.5722133 0.8200694 -0.007619103
-0.5795966 0.8148749 -0.006830197
-0.5869312 0.8096142 -0.006045724
-0.5942166 0.8042878 -0.005265766
-0.6014522 0.7988962 -0.004490402
-0.6086375 0.7934397 -0.00371971
-0.6157719 0.787919 -0.002953771
-0.6228548 0.7823344 -0.002192661
-0.6298857 0.7766865 -0.001436458
-0.6368641 0.7709758 -0.0006852393
-0.6437894 0.7652027 6.091959e-05
-0.6506612 0.7593678 0.0008019428
-0.6574788 0.7534715 0.001537755
-0.6642417 0.7475144 0.002268283
-0.6709495 0.741497 0.002993452
-0.6776017 0.7354197 0.003713189
-0.6841976 0.7292832 0.004427422
-0.6907369 0.7230879 0.005136079
-0.697219 0.7168344 0.005839089
-0.7036434 0.7105232 0.006536381
-0.7100097 0.7041548 0.007227886
-0.7163173 0.6977298 0.007913534
-0.7225659 0.6912487 0.008593257
-0.7287548 0.6847121 0.009266987
-0.7348836 0.6781204 0.009934657
-0.740952 0.6714744 0.0105962
-0.7469594 0.6647745 0.01125155
-0.7529053 0.6580212 0.01190064
-0.7587894 0.6512153 0.01254342
-0.7646111 0.6443571 0.0131798
-0.7703701 0.6374474 0.01380974
-0.7760659 0.6304866 0.01443316
-0.7816981 0.6234754 0.01505002
-0.7872662 0.6164143 0.01566024
-0.7927699 0.609304 0.01626376
-0.7982088 0.6021449 0.01686053
-0.8035823 0.5949378 0.01745049
-0.8088902 0.5876831 0.01803358
-0.814132 0.5803816 0.01860975
-0.8193074 0.5730337 0.01917893
-0.8244159 0.5656402 0.01974107
-0.8294571 0.5582015 0.02029611
-0.8344308 0.5507184 0.02084401
-0.8393365 0.5431914 0.0213847
-0.8441739 0.5356211 0.02191814
-0.8489426 0.5280083 0.02244427
-0.8536422 0.5203534 0.02296304
-0.8582725 0.5126571 0.02347441
-0.862833 0.5049201 0.02397831
-0.8673234 0.4971429 0.02447471
-0.8717435 0.4893262 0.02496355
-0.8760928 0.4814707 0.02544478
-0.880371 0.4735769 0.02591837
-0.8845779 0.4656456 0.02638425
-0.8887131 0.4576772 0.0268424
-0.8927764 0.4496726 0.02729276
-0.8967673 0.4416324 0.02773529
-0.9006857 0.4335571 0.02816995
-0.9045312 0.4254475 0.0285967
-0.9083036 0.4173041 0.02901548
-0.9120025 0.4091277 0.02942628
-0.9156278 0.4009189 0.02982904
-0.9191791 0.3926784 0.03022372
-0.9226562 0.3844068 0.03061029
-0.9260588 0.3761048 0.03098871
-0.9293867 0.367773 0.03135894
-0.9326396 0.3594122 0.03172096
-0.9358174 0.3510229 0.03207472
-0.9389197 0.3426059 0.03242018
-0.9419463 0.3341618 0.03275733
-0.9448971 0.3256914 0.03308611
-0.9477717 0.3171952 0.03340651
-0.9505701 0.3086739 0.0337185
-0.9532919 0.3001283 0.03402203
-0.9559371 0.291559 0.03431709
-0.9585053 0.2829667 0.03460364
-0.9609965 0.2743521 0.03488166
-0.9634104 0.2657158 0.03515112
-0.9657468 0.2570586 0.035412
-0.9680056 0.2483811 0.03566426
-0.9701867 0.239684 0.03590789
-0.9722898 0.230968 0.03614287
-0.9743148 0.2222338 0.03636916
-0.9762616 0.2134821 0.03658676
-0.9781301 0.2047136 0.03679563
-0.97992 0.195929 0.03699576
-0.9816312 0.1871289 0.03718713
-0.9832637 0.1783141 0.03736972
-0.9848174 0.1694853 0.03754351
-0.986292 0.1606431 0.0377085
-0.9876875 0.1517882 0.03786465
-0.9890038 0.1429214 0.03801196
-0.9902408 0.1340434 0.03815041
-0.9913985 0.1251548 0.03827999
-0.9924766 0.1162564 0.03840069
-0.9934752 0.1073488 0.03851249
-0.9943942 0.09843276 0.03861539
-0.9952335 0.08950898 0.03870937
-0.995993 0.08057816 0.03879443
-0.9966728 0.071641 0.03887056
-0.9972727 0.06269821 0.03893774
-0.9977927 0.05375048 0.03899599
-0.9982327 0.04479853 0.03904528
-0.9985928 0.03584305 0.03908561
-0.9988729 0.02688476 0.03911699
-0.999073 0.01792435 0.03913941
-0.999193 0.008962525 0.03915285
-0.9992331 3.469447e-18 0.03915734
-0.999193 -0.008962525 0.03915285
-0.999073 -0.01792435 0.03913941
-0.9988729 -0.02688476 0.03911699
-0.9985928 -0.03584305 0.03908561
-0.9982327 -0.04479853 0.03904528
-0.9977927 -0.05375048 0.03899599
-0.9972727 -0.06269821 0.03893774
-0.9966728 -0.071641 0.03887056
-0.995993 -0.08057816 0.03879443
-0.9952335 -0.08950898 0.03870937
-0.9943942 -0.09843276 0.03861539
-0.9934752 -0.1073488 0.03851249
-0.9924766 -0.1162564 0.03840069
-0.9913985 -0.1251548 0.03827999
-0.9902408 -0.1340434 0.03815041
-0.9890038 -0.1429214 0.03801196
-0.9876875 -0.1517882 0.03786465
-0.986292 -0.1606431 0.0377085
-0.9848174 -0.1694853 0.03754351
-0.9832637 -0.1783141 0.03736972
-0.9816312 -0.1871289 0.03718713
-0.97992 -0.195929 0.03699576
-0.9781301 -0.2047136 0.03679563
-0.9762616 -0.2134821 0.03658676