# vtk DataFile Version 2.0
Written badly by Kevin Korner
ASCII
DATASET POLYDATA
POINTS 350 FLOAT
0 0 0
0.00286533 0 0
0.005728183 4.44995e-05 -0.0001104705
0.008584101 0.0001287879 -0.00032667
0.01142932 0.0002482903 -0.0006437381
0.01426074 0.0003986226 -0.001056751
0.01707584 0.0005756294 -0.001560767
0.01987262 0.0007754086 -0.002150854
0.0226496 0.0009943268 -0.002822115
0.02540571 0.001229027 -0.0035697
0.02814029 0.001476434 -0.004388816
0.03085305 0.001733751 -0.005274725
0.03354402 0.001998459 -0.006222741
0.03621353 0.002268317 -0.007228217
0.03886222 0.002541354 -0.008286523
0.04149099 0.002815874 -0.009393014
0.04410103 0.003090457 -0.01054298
0.04669382 0.003363967 -0.01173158
0.04927118 0.003635576 -0.01295368
0.05183541 0.003904809 -0.01420362
0.05438948 0.004171656 -0.01547469
0.05693795 0.004436917 -0.01675729
0.059489 0.004703193 -0.01803453
0.062048 0.004972883 -0.01929506
0.06461767 0.005247846 -0.0205325
0.06719971 0.005529811 -0.02174234
0.06979518 0.005820471 -0.02292098
0.07240471 0.006121515 -0.02406544
0.07502863 0.006434633 -0.02517319
0.07766697 0.006761521 -0.02624204
0.08031953 0.007103873 -0.02727006
0.08298591 0.007463373 -0.0282556
0.08566553 0.007841696 -0.0291972
0.08835766 0.008240495 -0.03009362
0.09106139 0.008661396 -0.03094378
0.09377573 0.00910599 -0.03174679
0.09649953 0.009575829 -0.03250193
0.09923158 0.01007242 -0.03320863
0.1019706 0.0105972 -0.03386647
0.104715 0.01115158 -0.03447517
0.1074636 0.01173687 -0.0350346
0.1102147 0.01235434 -0.03554474
0.1129668 0.01300517 -0.03600574
0.1157183 0.01369048 -0.03641783
0.1184675 0.01441128 -0.03678137
0.1212129 0.01516854 -0.03709684
0.1239528 0.01596312 -0.03736482
0.1266856 0.0167958 -0.03758597
0.1294095 0.01766727 -0.03776106
0.1321231 0.01857814 -0.03789094
0.1348247 0.01952894 -0.03797654
0.1375128 0.0205201 -0.03801886
0.1401859 0.02155198 -0.03801897
0.1428425 0.02262485 -0.037978
0.1454811 0.0237389 -0.03789711
0.1481005 0.02489425 -0.03777754
0.1506992 0.02609094 -0.03762054
0.1532761 0.02732893 -0.03742742
0.1558299 0.02860811 -0.0371995
0.1583595 0.02992833 -0.03693813
0.1608638 0.03128934 -0.03664467
0.1633418 0.03269085 -0.03632049
0.1657927 0.03413253 -0.03596698
0.1682155 0.03561396 -0.03558551
0.1706094 0.03713471 -0.03517748
0.1729738 0.03869427 -0.03474424
0.1753079 0.04029213 -0.03428717
0.1776112 0.04192771 -0.0338076
0.179883 0.04360041 -0.03330688
0.1821231 0.04530961 -0.0327863
0.1843309 0.04705463 -0.03224715
0.186506 0.04883481 -0.03169069
0.1886483 0.05064945 -0.03111815
0.1907575 0.05249782 -0.03053075
0.1928334 0.05437921 -0.02992963
0.1948758 0.05629286 -0.02931596
0.1968847 0.05823804 -0.02869082
0.19886 0.06021398 -0.02805529
0.2008017 0.06221993 -0.02741042
0.20271 0.06425514 -0.02675719
0.2045847 0.06631883 -0.02609657
0.2064262 0.06841027 -0.0254295
0.2082345 0.07052869 -0.02475685
0.2100098 0.07267334 -0.0240795
0.2117524 0.0748435 -0.02339827
0.2134624 0.07703843 -0.02271393
0.2151401 0.07925741 -0.02202725
0.2167858 0.08149973 -0.02133894
0.2183998 0.08376469 -0.02064969
0.2199824 0.0860516 -0.01996014
0.221534 0.08835979 -0.01927093
0.2230548 0.09068859 -0.01858264
0.2245454 0.09303737 -0.01789583
0.2260059 0.09540549 -0.01721103
0.2274369 0.09779232 -0.01652875
0.2288386 0.1001973 -0.01584947
0.2302116 0.1026197 -0.01517362
0.2315561 0.1050592 -0.01450164
0.2328726 0.107515 -0.01383393
0.2341615 0.1099867 -0.01317086
0.2354232 0.1124737 -0.01251278
0.2366581 0.1149755 -0.01186004
0.2378666 0.1174916 -0.01121294
0.2390492 0.1200215 -0.01057178
0.2402062 0.1225648 -0.009936828
0.241338 0.125121 -0.009308344
0.242445 0.1276897 -0.008686567
0.2435276 0.1302704 -0.008071719
0.2445863 0.1328627 -0.007464011
0.2456214 0.1354662 -0.006863635
0.2466332 0.1380805 -0.006270772
0.2476222 0.1407053 -0.00568559
0.2485887 0.1433402 -0.005108242
0.2495332 0.1459848 -0.004538872
0.2504558 0.1486388 -0.003977614
0.2513571 0.1513019 -0.003424588
0.2522373 0.1539738 -0.002879909
0.2530968 0.156654 -0.00234368
0.2539359 0.1593424 -0.001815995
0.254755 0.1620387 -0.001296942
0.2555542 0.1647426 -0.0007866006
0.2563341 0.1674537 -0.0002850439
0.2570948 0.1701719 0.0002076619
0.2578366 0.172897 0.0006914565
0.2585599 0.1756285 0.001166285
0.2592649 0.1783664 0.001632099
0.2599519 0.1811104 0.002088852
0.2606211 0.1838603 0.002536506
0.2612728 0.1866159 0.002975023
0.2619073 0.1893769 0.003404372
0.2625247 0.1921432 0.003824524
0.2631254 0.1949145 0.004235454
0.2637095 0.1976908 0.00463714
0.2642773 0.2004718 0.00502956
0.264829 0.2032572 0.005412699
0.2653647 0.2060471 0.005786541
0.2658847 0.2088412 0.006151074
0.2663892 0.2116393 0.006506285
0.2668784 0.2144413 0.006852167
0.2673524 0.217247 0.00718871
0.2678114 0.2200564 0.007515909
0.2682556 0.2228691 0.007833758
0.2686851 0.2256853 0.008142252
0.2691001 0.2285045 0.00844139
0.2695007 0.2313269 0.008731167
0.2698871 0.2341522 0.009011583
0.2702594 0.2369802 0.009282636
0.2706178 0.239811 0.009544326
0.2709623 0.2426443 0.009796653
0.2712931 0.2454801 0.01003962
0.2716103 0.2483182 0.01027322
0.271914 0.2511586 0.01049746
0.2722043 0.2540011 0.01071234
0.2724813 0.2568456 0.01091786
0.2727451 0.259692 0.01111403
0.2729957 0.2625402 0.01130084
0.2732334 0.2653901 0.01147829
0.2734581 0.2682417 0.0116464
0.2736699 0.2710948 0.01180515
0.2738689 0.2739493 0.01195456
0.2740552 0.2768051 0.01209462
0.2742287 0.2796622 0.01222533
0.2743897 0.2825204 0.0123467
0.2745381 0.2853797 0.01245873
0.2746739 0.28824 0.01256142
0.2747972 0.2911011 0.01265476
0.2749081 0.2939631 0.01273877
0.2750066 0.2968257 0.01281345
0.2750928 0.299689 0.01287878
0.2751665 0.3025529 0.01293478
0.275228 0.3054171 0.01298145
0.2752771 0.3082818 0.01301878
0.2753139 0.3111468 0.01304678
0.2753385 0.3140119 0.01306544
0.2753507 0.3168772 0.01307478
0.2753507 0.3197426 0.01307478
0.2753385 0.3226078 0.01306544
0.2753139 0.325473 0.01304678
0.2752771 0.328338 0.01301878
0.275228 0.3312026 0.01298145
0.2751665 0.3340669 0.01293478
0.2750928 0.3369307 0.01287878
0.2750066 0.339794 0.01281345
0.2749081 0.3426567 0.01273877
0.2747972 0.3455186 0.01265476
0.2746739 0.3483798 0.01256142
0.2745381 0.3512401 0.01245873
0.2743897 0.3540994 0.0123467
0.2742287 0.3569576 0.01222533
0.2740552 0.3598147 0.01209462
0.2738689 0.3626705 0.01195456
0.2736699 0.365525 0.01180515
0.2734581 0.3683781 0.0116464
0.2732334 0.3712296 0.01147829
0.2729957 0.3740796 0.01130084
0.2727451 0.3769278 0.01111403
0.2724813 0.3797742 0.01091786
0.2722043 0.3826187 0.01071234
0.271914 0.3854612 0.01049746
0.2716103 0.3883015 0.01027322
0.2712931 0.3911397 0.01003962
0.2709623 0.3939754 0.009796653
0.2706178 0.3968088 0.009544326
0.2702594 0.3996395 0.009282636
0.2698871 0.4024676 0.009011583
0.2695007 0.4052929 0.008731167
0.2691001 0.4081152 0.00844139
0.2686851 0.4109345 0.008142252
0.2682556 0.4137506 0.007833758
0.2678114 0.4165634 0.007515909
0.2673524 0.4193727 0.00718871
0.2668784 0.4221785 0.006852167
0.2663892 0.4249805 0.006506285
0.2658847 0.4277786 0.006151074
0.2653647 0.4305727 0.005786541
0.264829 0.4333625 0.005412699
0.2642773 0.436148 0.00502956
0.2637095 0.438929 0.00463714
0.2631254 0.4417052 0.004235454
0.2625247 0.4444766 0.003824524
0.2619073 0.4472429 0.003404372
0.2612728 0.4500039 0.002975023
0.2606211 0.4527594 0.002536506
0.2599519 0.4555093 0.002088852
0.2592649 0.4582533 0.001632099
0.2585599 0.4609912 0.001166285
0.2578366 0.4637228 0.0006914565
0.2570948 0.4664478 0.0002076619
0.2563341 0.4691661 -0.0002850439
0.2555542 0.4718772 -0.0007866006
0.254755 0.4745811 -0.001296942
0.2539359 0.4772773 -0.001815995
0.2530968 0.4799658 -0.00234368
0.2522373 0.482646 -0.002879909
0.2513571 0.4853178 -0.003424588
0.2504558 0.4879809 -0.003977614
0.2495332 0.4906349 -0.004538872
0.2485887 0.4932796 -0.005108242
0.2476222 0.4959144 -0.00568559
0.2466332 0.4985392 -0.006270772
0.2456214 0.5011536 -0.006863635
0.2445863 0.5037571 -0.007464011
0.2435276 0.5063494 -0.008071719
0.242445 0.5089301 -0.008686567
0.241338 0.5114987 -0.009308344
0.2402062 0.5140549 -0.009936828
0.2390492 0.5165982 -0.01057178
0.2378666 0.5191282 -0.01121294
0.2366581 0.5216443 -0.01186004
0.2354232 0.5241461 -0.01251278
0.2341615 0.5266331 -0.01317086
0.2328726 0.5291048 -0.01383393
0.2315561 0.5315606 -0.01450164
0.2302116 0.534 -0.01517362
0.2288386 0.5364225 -0.01584947
0.2274369 0.5388275 -0.01652875
0.2260059 0.5412143 -0.01721103
0.2245454 0.5435824 -0.01789583
0.2230548 0.5459312 -0.01858264
0.221534 0.54826 -0.01927093
0.2199824 0.5505682 -0.01996014
0.2183998 0.5528551 -0.02064969
0.2167858 0.55512 -0.02133894
0.2151401 0.5573624 -0.02202725
0.2134624 0.5595813 -0.02271393
0.2117524 0.5617763 -0.02339827
0.2100098 0.5639464 -0.0240795
0.2082345 0.5660911 -0.02475685
0.2064262 0.5682095 -0.0254295
0.2045847 0.5703009 -0.02609657
0.20271 0.5723646 -0.02675719
0.2008017 0.5743998 -0.02741042
0.19886 0.5764058 -0.02805529
0.1968847 0.5783817 -0.02869082
0.1948758 0.5803269 -0.02931596
0.1928334 0.5822406 -0.02992963
0.1907575 0.584122 -0.03053075
0.1886483 0.5859703 -0.03111815
0.186506 0.587785 -0.03169069
0.1843309 0.5895651 -0.03224715
0.1821231 0.5913102 -0.0327863
0.179883 0.5930194 -0.03330688
0.1776112 0.5946921 -0.0338076
0.1753079 0.5963276 -0.03428717
0.1729738 0.5979255 -0.03474424
0.1706094 0.5994851 -0.03517748
0.1682155 0.6010058 -0.03558551
0.1657927 0.6024872 -0.03596698
0.1633418 0.6039289 -0.03632049
0.1608638 0.6053304 -0.03664467
0.1583595 0.6066914 -0.03693813
0.1558299 0.6080117 -0.0371995
0.1532761 0.6092908 -0.03742742
0.1506992 0.6105288 -0.03762054
0.1481005 0.6117255 -0.03777754
0.1454811 0.6128809 -0.03789711
0.1428425 0.6139949 -0.037978
0.1401859 0.6150678 -0.03801897
0.1375128 0.6160997 -0.03801886
0.1348247 0.6170908 -0.03797654
0.1321231 0.6180416 -0.03789094
0.1294095 0.6189525 -0.03776106
0.1266856 0.619824 -0.03758597
0.1239528 0.6206566 -0.03736482
0.1212129 0.6214512 -0.03709684
0.1184675 0.6222085 -0.03678137
0.1157183 0.6229293 -0.03641783
0.1129668 0.6236146 -0.03600574
0.1102147 0.6242654 -0.03554474
0.1074636 0.6248829 -0.0350346
0.104715 0.6254682 -0.03447517
0.1019706 0.6260226 -0.03386647
0.09923158 0.6265474 -0.03320863
0.09649953 0.6270439 -0.03250193
0.09377573 0.6275138 -0.03174679
0.09106139 0.6279584 -0.03094378
0.08835766 0.6283793 -0.03009362
0.08566553 0.6287781 -0.0291972
0.08298591 0.6291564 -0.0282556
0.08031953 0.6295159 -0.02727006
0.07766697 0.6298583 -0.02624204
0.07502863 0.6301851 -0.02517319
0.07240471 0.6304983 -0.02406544
0.06979518 0.6307993 -0.02292098
0.06719971 0.63109 -0.02174234
0.06461767 0.6313719 -0.0205325
0.062048 0.6316469 -0.01929506
0.059489 0.6319166 -0.01803453
0.05693795 0.6321829 -0.01675729
0.05438948 0.6324481 -0.01547469
0.05183541 0.632715 -0.01420362
0.04927118 0.6329842 -0.01295368
0.04669382 0.6332558 -0.01173158
0.04410103 0.6335293 -0.01054298
0.04149099 0.6338039 -0.009393014
0.03886222 0.6340784 -0.008286523
0.03621353 0.6343515 -0.007228217
0.03354402 0.6346213 -0.006222741
0.03085305 0.634886 -0.005274725
0.02814029 0.6351433 -0.004388816
0.02540571 0.6353907 -0.0035697
0.0226496 0.6356254 -0.002822115
0.01987262 0.6358444 -0.002150854
0.01707584 0.6360441 -0.001560767
0.01426074 0.6362211 -0.001056751
0.01142932 0.6363715 -0.0006437381
0.008584101 0.636491 -0.00032667
0.005728183 0.6365753 -0.0001104705
0.00286533 0.6366198 0
0 0.6366198 0

LINES 349 1047
2 0 1
2 1 2
2 2 3
2 3 4
2 4 5
2 5 6
2 6 7
2 7 8
2 8 9
2 9 10
2 10 11
2 11 12
2 12 13
2 13 14
2 14 15
2 15 16
2 16 17
2 17 18
2 18 19
2 19 20
2 20 21
2 21 22
2 22 23
2 23 24
2 24 25
2 25 26
2 26 27
2 27 28
2 28 29
2 29 30
2 30 31
2 31 32
2 32 33
2 33 34
2 34 35
2 35 36
2 36 37
2 37 38
2 38 39
2 39 40
2 40 41
2 41 42
2 42 43
2 43 44
2 44 45
2 45 46
2 46 47
2 47 48
2 48 49
2 49 50
2 50 51
2 51 52
2 52 53
2 53 54
2 54 55
2 55 56
2 56 57
2 57 58
2 58 59
2 59 60
2 60 61
2 61 62
2 62 63
2 63 64
2 64 65
2 65 66
2 66 67
2 67 68
2 68 69
2 69 70
2 70 71
2 71 72
2 72 73
2 73 74
2 74 75
2 75 76
2 76 77
2 77 78
2 78 79
2 79 80
2 80 81
2 81 82
2 82 83
2 83 84
2 84 85
2 85 86
2 86 87
2 87 88
2 88 89
2 89 90
2 90 91
2 91 92
2 92 93
2 93 94
2 94 95
2 95 96
2 96 97
2 97 98
2 98 99
2 99 100
2 100 101
2 101 102
2 102 103
2 103 104
2 104 105
2 105 106
2 106 107
2 107 108
2 108 109
2 109 110
2 110 111
2 111 112
2 112 113
2 113 114
2 114 115
2 115 116
2 116 117
2 117 118
2 118 119
2 119 120
2 120 121
2 121 122
2 122 123
2 123 124
2 124 125
2 125 126
2 126 127
2 127 128
2 128 129
2 129 130
2 130 131
2 131 132
2 132 133
2 133 134
2 134 135
2 135 136
2 136 137
2 137 138
2 138 139
2 139 140
2 140 141
2 141 142
2 142 143
2 143 144
2 144 145
2 145 146
2 146 147
2 147 148
2 148 149
2 149 150
2 150 151
2 151 152
2 152 153
2 153 154
2 154 155
2 155 156
2 156 157
2 157 158
2 158 159
2 159 160
2 160 161
2 161 162
2 162 163
2 163 164
2 164 165
2 165 166
2 166 167
2 167 168
2 168 169
2 169 170
2 170 171
2 171 172
2 172 173
2 173 174
2 174 175
2 175 176
2 176 177
2 177 178
2 178 179
2 179 180
2 180 181
2 181 182
2 182 183
2 183 184
2 184 185
2 185 186
2 186 187
2 187 188
2 188 189
2 189 190
2 190 191
2 191 192
2 192 193
2 193 194
2 194 195
2 195 196
2 196 197
2 197 198
2 198 199
2 199 200
2 200 201
2 201 202
2 202 203
2 203 204
2 204 205
2 205 206
2 206 207
2 207 208
2 208 209
2 209 210
2 210 211
2 211 212
2 212 213
2 213 214
2 214 215
2 215 216
2 216 217
2 217 218
2 218 219
2 219 220
2 220 221
2 221 222
2 222 223
2 223 224
2 224 225
2 225 226
2 226 227
2 227 228
2 228 229
2 229 230
2 230 231
2 231 232
2 232 233
2 233 234
2 234 235
2 235 236
2 236 237
2 237 238
2 238 239
2 239 240
2 240 241
2 241 242
2 242 243
2 243 244
2 244 245
2 245 246
2 246 247
2 247 248
2 248 249
2 249 250
2 250 251
2 251 252
2 252 253
2 253 254
2 254 255
2 255 256
2 256 257
2 257 258
2 258 259
2 259 260
2 260 261
2 261 262
2 262 263
2 263 264
2 264 265
2 265 266
2 266 267
2 267 268
2 268 269
2 269 270
2 270 271
2 271 272
2 272 273
2 273 274
2 274 275
2 275 276
2 276 277
2 277 278
2 278 279
2 279 280
2 280 281
2 281 282
2 282 283
2 283 284
2 284 285
2 285 286
2 286 287
2 287 288
2 288 289
2 289 290
2 290 291
2 291 292
2 292 293
2 293 294
2 294 295
2 295 296
2 296 297
2 297 298
2 298 299
2 299 300
2 300 301
2 301 302
2 302 303
2 303 304
2 304 305
2 305 306
2 306 307
2 307 308
2 308 309
2 309 310
2 310 311
2 311 312
2 312 313
2 313 314
2 314 315
2 315 316
2 316 317
2 317 318
2 318 319
2 319 320
2 320 321
2 321 322
2 322 323
2 323 324
2 324 325
2 325 326
2 326 327
2 327 328
2 328 329
2 329 330
2 330 331
2 331 332
2 332 333
2 333 334
2 334 335
2 335 336
2 336 337
2 337 338
2 338 339
2 339 340
2 340 341
2 341 342
2 342 343
2 343 344
2 344 345
2 345 346
2 346 347
2 347 348
2 348 349


POINT_DATA 350
SCALARS a FLOAT 1
LOOKUP_TABLE default
0.0005894628
0.0005894628
0.0005894628
0.0005894628
0.0005894628
0.0005894628
0.0005894628
0.0005894628
0.0005894628
0.0005894628
0.0005894628
0.0005894628
0.0005894628
0.0005894628
0.0005894628
0.0005894628
0.0005894628
0.0005894628
0.0005894628
0.0005894628
0.0005894628
0.0005894628
0.0005894628
0.0005894628
0.0005894628
0.0005894628
0.0005894628
0.0005894628
0.0005894628
0.0005894628
0.0005894628
0.0005894628
0.0005894628
0.0005894628
0.0005894628
0.0005894628
0.0005894628
0.0005894628
0.0005894628
0.0005894628
0.0005894628
0.0005894628
0.0005894628
0.0005894628
0.0005894628
0.0005894628
0.0005894628
0.0005894628
0.0005894628
0.0005894628
0.0005894628
0.0005894628
0.0005894628
0.0005894628
0.0005894628
0.0005894628
0.0005894628
0.0005894628
0.0005894628
0.0005894628
0.0005894628
0.0005894628
0.0005894628
0.0005894628
0.0005894628
0.0005894628
0.0005894628
0.0005894628
0.0005894628
0.0005894628
0.0005894628
0.0005894628
0.0005894628
0.0005894628
0.0005894628
0.0005894628
0.0005894628
0.0005894628
0.0005894628
0.0005894628
0.0005894628
0.0005894628
0.0005894628
0.0005894628
0.0005894628
0.0005894628
0.0005894628
0.0005894628
0.0005894628
0.0005894628
0.0005894628
0.0005894628
0.0005894628
0.0005894628
0.0005894628
0.0005894628
0.0005894628
0.0005894628
0.0005894628
0.0005894628
0.0005894628
0.0005894628
0.0005894628
0.0005894628
0.0005894628
0.0005894628
0.0005894628
0.0005894628
0.0005894628
0.0005894628
0.0005894628
0.0005894628
0.0005894628
0.0005894628
0.0005894628
0.0005894628
0.0005894628
0.0005894628
0.0005894628
0.0005894628
0.0005894628
0.0005894628
0.0005894628
0.0005894628
0.0005894628
0.0005894628
0.0005894628
0.0005894628
0.0005894628
0.0005894628
0.0005894628
0.0005894628
0.0005894628
0.0005894628
0.0005894628
0.0005894628
0.0005894628
0.0005894628
0.0005894628
0.0005894628
0.0005894628
0.0005894628
0.0005894628
0.0005894628
0.0005894628
0.0005894628
0.0005894628
0.0005894628
0.0005894628
0.0005894628
0.0005894628
0.0005894628
0.0005894628
0.0005894628
0.0005894628
0.0005894628
0.0005894628
0.0005894628
0.0005894628
0.0005894628
0.0005894628
0.0005894628
0.0005894628
0.0005894628
0.0005894628
0.0005894628
0.0005894628
0.0005894628
0.0005894628
0.0005894628
0.0005894628
0.0005894628
0.0005894628
0.0005894628
0.0005894628
0.0005894628
0.0005894628
0.0005894628
0.0005894628
0.0005894628
0.0005894628
0.0005894628
0.0005894628
0.0005894628
0.0005894628
0.0005894628
0.0005894628
0.0005894628
0.0005894628
0.0005894628
0.0005894628
0.0005894628
0.0005894628
0.0005894628
0.0005894628
0.0005894628
0.0005894628
0.0005894628
0.0005894628
0.0005894628
0.0005894628
0.0005894628
0.0005894628
0.0005894628
0.0005894628
0.0005894628
0.0005894628
0.0005894628
0.0005894628
0.0005894628
0.0005894628
0.0005894628
0.0005894628
0.0005894628
0.0005894628
0.0005894628
0.0005894628
0.0005894628
0.0005894628
0.0005894628
0.0005894628
0.0005894628
0.0005894628
0.0005894628
0.0005894628
0.0005894628
0.0005894628
0.0005894628
0.0005894628
0.0005894628
0.0005894628
0.0005894628
0.0005894628
0.0005894628
0.0005894628
0.0005894628
0.0005894628
0.0005894628
0.0005894628
0.0005894628
0.0005894628
0.0005894628
0.0005894628
0.0005894628
0.0005894628
0.0005894628
0.0005894628
0.0005894628
0.0005894628
0.0005894628
0.0005894628
0.0005894628
0.0005894628
0.0005894628
0.0005894628
0.0005894628
0.0005894628
0.0005894628
0.0005894628
0.0005894628
0.0005894628
0.0005894628
0.0005894628
0.0005894628
0.0005894628
0.0005894628
0.0005894628
0.0005894628
0.0005894628
0.0005894628
0.0005894628
0.0005894628
0.0005894628
0.0005894628
0.0005894628
0.0005894628
0.0005894628
0.0005894628
0.0005894628
0.0005894628
0.0005894628
0.0005894628
0.0005894628
0.0005894628
0.0005894628
0.0005894628
0.0005894628
0.0005894628
0.0005894628
0.0005894628
0.0005894628
0.0005894628
0.0005894628
0.0005894628
0.0005894628
0.0005894628
0.0005894628
0.0005894628
0.0005894628
0.0005894628
0.0005894628
0.0005894628
0.0005894628
0.0005894628
0.0005894628
0.0005894628
0.0005894628
0.0005894628
0.0005894628
0.0005894628
0.0005894628
0.0005894628
0.0005894628
0.0005894628
0.0005894628
0.0005894628
0.0005894628
0.0005894628
0.0005894628
0.0005894628
0.0005894628
0.0005894628
0.0005894628
0.0005894628
0.0005894628
0.0005894628
0.0005894628
0.0005894628
0.0005894628
0.0005894628
0.0005894628
0.0005894628
0.0005894628
0.0005894628
0.0005894628
0.0005894628
0.0005894628
0.0005894628
0.0005894628
0.0005894628
0.0005894628
0.0005894628
0.0005894628
0.0005894628
0.0005894628
0.0005894628
0.0005894628
0.0005894628
0.0005894628
0.0005894628


SCALARS b FLOAT 1
LOOKUP_TABLE default
0.02357851
0.02357851
0.02357851
0.02357851
0.02357851
0.02357851
0.02357851
0.02357851
0.02357851
0.02357851
0.02357851
0.02357851
0.02357851
0.02357851
0.02357851
0.02357851
0.02357851
0.02357851
0.02357851
0.02357851
0.02357851
0.02357851
0.02357851
0.02357851
0.02357851
0.02357851
0.02357851
0.02357851
0.02357851
0.02357851
0.02357851
0.02357851
0.02357851
0.02357851
0.02357851
0.02357851
0.02357851
0.02357851
0.02357851
0.02357851
0.02357851
0.02357851
0.02357851
0.02357851
0.02357851
0.02357851
0.02357851
0.02357851
0.02357851
0.02357851
0.02357851
0.02357851
0.02357851
0.02357851
0.02357851
0.02357851
0.02357851
0.02357851
0.02357851
0.02357851
0.02357851
0.02357851
0.02357851
0.02357851
0.02357851
0.02357851
0.02357851
0.02357851
0.02357851
0.02357851
0.02357851
0.02357851
0.02357851
0.02357851
0.02357851
0.02357851
0.02357851
0.02357851
0.02357851
0.02357851
0.02357851
0.02357851
0.02357851
0.02357851
0.02357851
0.02357851
0.02357851
0.02357851
0.02357851
0.02357851
0.02357851
0.02357851
0.02357851
0.02357851
0.02357851
0.02357851
0.02357851
0.02357851
0.02357851
0.02357851
0.02357851
0.02357851
0.02357851
0.02357851
0.02357851
0.02357851
0.02357851
0.02357851
0.02357851
0.02357851
0.02357851
0.02357851
0.02357851
0.02357851
0.02357851
0.02357851
0.02357851
0.02357851
0.02357851
0.02357851
0.02357851
0.02357851
0.02357851
0.02357851
0.02357851
0.02357851
0.02357851
0.02357851
0.02357851
0.02357851
0.02357851
0.02357851
0.02357851
0.02357851
0.02357851
0.02357851
0.02357851
0.02357851
0.02357851
0.02357851
0.02357851
0.02357851
0.02357851
0.02357851
0.02357851
0.02357851
0.02357851
0.02357851
0.02357851
0.02357851
0.02357851
0.02357851
0.02357851
0.02357851
0.02357851
0.02357851
0.02357851
0.02357851
0.02357851
0.02357851
0.02357851
0.02357851
0.02357851
0.02357851
0.02357851
0.02357851
0.02357851
0.02357851
0.02357851
0.02357851
0.02357851
0.02357851
0.02357851
0.02357851
0.02357851
0.02357851
0.02357851
0.02357851
0.02357851
0.02357851
0.02357851
0.02357851
0.02357851
0.02357851
0.02357851
0.02357851
0.02357851
0.02357851
0.02357851
0.02357851
0.02357851
0.02357851
0.02357851
0.02357851
0.02357851
0.02357851
0.02357851
0.02357851
0.02357851
0.02357851
0.02357851
0.02357851
0.02357851
0.02357851
0.02357851
0.02357851
0.02357851
0.02357851
0.02357851
0.02357851
0.02357851
0.02357851
0.02357851
0.02357851
0.02357851
0.02357851
0.02357851
0.02357851
0.02357851
0.02357851
0.02357851
0.02357851
0.02357851
0.02357851
0.02357851
0.02357851
0.02357851
0.02357851
0.02357851
0.02357851
0.02357851
0.02357851
0.02357851
0.02357851
0.02357851
0.02357851
0.02357851
0.02357851
0.02357851
0.02357851
0.02357851
0.02357851
0.02357851
0.02357851
0.02357851
0.02357851
0.02357851
0.02357851
0.02357851
0.02357851
0.02357851
0.02357851
0.02357851
0.02357851
0.02357851
0.02357851
0.02357851
0.02357851
0.02357851
0.02357851
0.02357851
0.02357851
0.02357851
0.02357851
0.02357851
0.02357851
0.02357851
0.02357851
0.02357851
0.02357851
0.02357851
0.02357851
0.02357851
0.02357851
0.02357851
0.02357851
0.02357851
0.02357851
0.02357851
0.02357851
0.02357851
0.02357851
0.02357851
0.02357851
0.02357851
0.02357851
0.02357851
0.02357851
0.02357851
0.02357851
0.02357851
0.02357851
0.02357851
0.02357851
0.02357851
0.02357851
0.02357851
0.02357851
0.02357851
0.02357851
0.02357851
0.02357851
0.02357851
0.02357851
0.02357851
0.02357851
0.02357851
0.02357851
0.02357851
0.02357851
0.02357851
0.02357851
0.02357851
0.02357851
0.02357851
0.02357851
0.02357851
0.02357851
0.02357851
0.02357851
0.02357851
0.02357851
0.02357851
0.02357851
0.02357851
0.02357851
0.02357851
0.02357851
0.02357851
0.02357851
0.02357851
0.02357851
0.02357851
0.02357851
0.02357851
0.02357851
0.02357851
0.02357851
0.02357851
0.02357851
0.02357851
0.02357851
0.02357851
0.02357851
0.02357851
0.02357851
0.02357851
0.02357851
0.02357851
0.02357851


VECTORS d1 FLOAT
0 -0.3826834 0.9238795
0.04156126 -0.3615025 0.9314444
0.08095969 -0.3385818 0.9374475
0.1181692 -0.3142393 0.9419606
0.1531865 -0.2887553 0.9450684
0.1860249 -0.2623757 0.9468652
0.2167095 -0.2353156 0.9474511
0.2452738 -0.2077626 0.9469295
0.2717558 -0.1798801 0.9454057
0.296196 -0.1518105 0.9429854
0.3186346 -0.1236779 0.9397743
0.3391089 -0.09559023 0.935878
0.3576516 -0.0676422 0.9314021
0.374287 -0.03991709 0.9264534
0.3890275 -0.0124892 0.9211415
0.4018675 0.01457372 0.9155818
0.4127733 0.04120753 0.9099012
0.4216649 0.06734745 0.9042472
0.428375 0.09292085 0.8988106
0.4325399 0.1178319 0.8938819
0.4331802 0.1419235 0.8900633
0.4277079 0.1651716 0.8886981
0.4179469 0.1882508 0.8887531
0.4056343 0.2112733 0.8892831
0.3914011 0.2342116 0.8899158
0.375578 0.2570196 0.8904392
0.3583769 0.2796485 0.8907091
0.3399518 0.3020491 0.8906173
0.3204243 0.3241733 0.8900786
0.2998969 0.3459742 0.889024
0.2784599 0.3674067 0.8873964
0.2561952 0.388427 0.8851489
0.2331798 0.4089933 0.8822424
0.2094864 0.4290657 0.8786456
0.1851853 0.4486066 0.8743332
0.1603445 0.4675804 0.869286
0.1350305 0.4859539 0.8634903
0.1093084 0.5036966 0.8569372
0.08324192 0.5207803 0.8496227
0.05689362 0.5371797 0.8415469
0.03032469 0.5528721 0.8327142
0.003594962 0.5678378 0.8231326
-0.0232372 0.5820597 0.8128139
-0.05011506 0.5955238 0.8017729
-0.0769836 0.6082188 0.7900275
-0.1037897 0.6201363 0.777598
-0.1304822 0.6312705 0.7645077
-0.1570123 0.6416185 0.7507815
-0.1833331 0.65118 0.7364466
-0.2094003 0.6599572 0.7215317
-0.2351721 0.6679547 0.706067
-0.2606091 0.6751797 0.6900836
-0.2856745 0.6816411 0.6736138
-0.3103343 0.6873502 0.6566905
-0.3345569 0.6923201 0.639347
-0.3583137 0.6965656 0.6216169
-0.3815784 0.7001032 0.6035341
-0.4043276 0.7029508 0.585132
-0.4265404 0.7051274 0.5664439
-0.4481985 0.7066532 0.5475028
-0.469286 0.7075496 0.528341
-0.4897895 0.7078386 0.50899
-0.509698 0.7075427 0.4894807
-0.5290025 0.7066852 0.4698429
-0.5476964 0.7052897 0.4501056
-0.565775 0.70338 0.4302966
-0.5832355 0.7009801 0.4104427
-0.600077 0.698114 0.3905693
-0.6163003 0.6948056 0.3707009
-0.6319076 0.6910785 0.3508607
-0.6469029 0.6869564 0.3310704
-0.6612913 0.6824622 0.3113507
-0.6750791 0.6776186 0.2917212
-0.6882739 0.672448 0.2721998
-0.7008843 0.6669718 0.2528037
-0.7129198 0.6612113 0.2335485
-0.7243906 0.6551869 0.2144489
-0.7353078 0.6489183 0.1955183
-0.745683 0.6424247 0.1767691
-0.7555283 0.6357245 0.1582127
-0.7648565 0.6288354 0.1398592
-0.7736805 0.6217742 0.1217181
-0.7820138 0.6145572 0.1037976
-0.7898698 0.6071998 0.08610532
-0.7972623 0.5997169 0.06864788
-0.8042052 0.5921223 0.05143111
-0.8107126 0.5844293 0.03446013
-0.8167983 0.5766505 0.01773932
-0.8224765 0.5687977 0.001272396
-0.8277609 0.5608822 -0.01493753
-0.8326654 0.5529144 -0.03088792
-0.8372037 0.5449042 -0.04657682
-0.8413894 0.5368609 -0.06200272
-0.8452358 0.5287931 -0.0771646
-0.8487561 0.5207088 -0.09206189
-0.8519633 0.5126157 -0.1066944
-0.8548701 0.5045206 -0.1210622
-0.857489 0.49643 -0.1351659
-0.8598323 0.4883499 -0.1490063
-0.8619118 0.4802858 -0.1625843
-0.8637392 0.4722427 -0.1759014
-0.8653261 0.4642254 -0.1889591
-0.8666834 0.456238 -0.2017591
-0.8678222 0.4482843 -0.2143033
-0.8687528 0.4403679 -0.2265938
-0.8694856 0.4324919 -0.2386329
-0.8700305 0.4246591 -0.2504228
-0.8703973 0.4168721 -0.261966
-0.8705954 0.409133 -0.2732651
-0.8706339 0.4014439 -0.2843227
-0.8705217 0.3938064 -0.2951415
-0.8702673 0.3862221 -0.3057241
-0.8698792 0.3786921 -0.3160735
-0.8693654 0.3712175 -0.3261923
-0.8687336 0.3637991 -0.3360835
-0.8679915 0.3564376 -0.3457499
-0.8671464 0.3491335 -0.3551943
-0.8662053 0.3418872 -0.3644195
-0.8651751 0.3346987 -0.3734286
-0.8640624 0.3275682 -0.3822242
-0.8628736 0.3204955 -0.3908092
-0.8616149 0.3134805 -0.3991864
-0.8602922 0.3065229 -0.4073585
-0.8589114 0.2996222 -0.4153284
-0.857478 0.292778 -0.4230986
-0.8559974 0.2859897 -0.4306719
-0.8544748 0.2792566 -0.4380508
-0.8529152 0.272578 -0.445238
-0.8513234 0.265953 -0.452236
-0.8497042 0.259381 -0.4590472
-0.848062 0.2528608 -0.465674
-0.8464011 0.2463916 -0.4721189
-0.8447259 0.2399725 -0.4783842
-0.8430402 0.2336022 -0.4844721
-0.841348 0.2272799 -0.4903849
-0.8396532 0.2210043 -0.4961246
-0.8379592 0.2147744 -0.5016935
-0.8362696 0.208589 -0.5070935
-0.8345878 0.2024469 -0.5123266
-0.8329169 0.196347 -0.5173947
-0.8312601 0.1902881 -0.5222998
-0.8296204 0.1842689 -0.5270435
-0.8280007 0.1782882 -0.5316278
-0.8264038 0.1723449 -0.5360541
-0.8248322 0.1664376 -0.5403243
-0.8232887 0.1605652 -0.5444397
-0.8217755 0.1547263 -0.5484021
-0.8202951 0.1489199 -0.5522127
-0.8188497 0.1431446 -0.555873
-0.8174415 0.1373991 -0.5593844
-0.8160725 0.1316824 -0.5627481
-0.8147447 0.1259931 -0.5659654
-0.81346 0.12033 -0.5690374
-0.8122201 0.114692 -0.5719652
-0.8110268 0.1090778 -0.5747499
-0.8098817 0.1034862 -0.5773926
-0.8087863 0.09791599 -0.5798941
-0.807742 0.09236604 -0.5822554
-0.8067502 0.08683515 -0.5844773
-0.8058122 0.08132216 -0.5865606
-0.8049292 0.07582589 -0.5885061
-0.8041023 0.0703452 -0.5903144
-0.8033325 0.06487894 -0.5919862
-0.8026208 0.05942596 -0.5935221
-0.801968 0.05398513 -0.5949226
-0.801375 0.04855534 -0.5961883
-0.8008425 0.04313545 -0.5973195
-0.8003711 0.03772435 -0.5983167
-0.7999615 0.03232093 -0.5991803
-0.799614 0.02692408 -0.5999105
-0.7993291 0.0215327 -0.6005076
-0.7991072 0.01614571 -0.6009717
-0.7989485 0.01076198 -0.6013032
-0.7988532 0.005380446 -0.601502
-0.7988214 -7.592149e-12 -0.6015682
-0.7988532 -0.005380446 -0.601502
-0.7989485 -0.01076198 -0.6013032
-0.7991072 -0.01614571 -0.6009717
-0.7993291 -0.0215327 -0.6005076
-0.799614 -0.02692408 -0.5999105
-0.7999615 -0.03232093 -0.5991803
-0.8003711 -0.03772435 -0.5983167
-0.8008425 -0.04313545 -0.5973195
-0.801375 -0.04855534 -0.5961883
-0.801968 -0.05398513 -0.5949226
-0.8026208 -0.05942596 -0.5935221
-0.8033325 -0.06487894 -0.5919862
-0.8041023 -0.0703452 -0.5903144
-0.8049292 -0.07582589 -0.5885061
-0.8058122 -0.08132216 -0.5865606
-0.8067502 -0.08683515 -0.5844773
-0.807742 -0.09236604 -0.5822554
-0.8087863 -0.09791599 -0.5798941
-0.8098817 -0.1034862 -0.5773926
-0.8110268 -0.1090778 -0.5747499
-0.8122201 -0.114692 -0.5719652
-0.81346 -0.12033 -0.5690374
-0.8147447 -0.1259931 -0.5659654
-0.8160725 -0.1316824 -0.5627481
-0.8174415 -0.1373991 -0.5593844
-0.8188497 -0.1431446 -0.555873
-0.8202951 -0.1489199 -0.5522127
-0.8217755 -0.1547263 -0.5484021
-0.8232887 -0.1605652 -0.5444397
-0.8248322 -0.1664376 -0.5403243
-0.8264038 -0.1723449 -0.5360541
-0.8280007 -0.1782882 -0.5316278
-0.8296204 -0.1842689 -0.5270435
-0.8312601 -0.1902881 -0.5222998
-0.8329169 -0.196347 -0.5173947
-0.8345878 -0.2024469 -0.5123266
-0.8362696 -0.208589 -0.5070935
-0.8379592 -0.2147744 -0.5016935
-0.8396532 -0.2210043 -0.4961246
-0.841348 -0.2272799 -0.4903849
-0.8430402 -0.2336022 -0.4844721
-0.8447259 -0.2399725 -0.4783842