# vtk DataFile Version 2.0
Written badly by Kevin Korner
ASCII
DATASET POLYDATA
POINTS 350 FLOAT
0 0 0
0.00286533 0 0
0.005730482 1.792022e-05 2.629552e-05
0.008595101 5.422304e-05 7.880436e-05
0.01145882 0.0001093619 0.0001574255
0.01432127 0.0001837807 0.0002620393
0.01718208 0.0002779137 0.0003925084
0.02004087 0.0003921847 0.0005486775
0.02289725 0.0005270069 0.0007303743
0.02575084 0.0006827823 0.0009374097
0.02860125 0.0008599018 0.001169578
0.03144809 0.001058744 0.001426659
0.03429096 0.001279677 0.001708416
0.03712947 0.001523055 0.002014597
0.03996322 0.00178922 0.002344937
0.04279182 0.002078502 0.002699156
0.04561486 0.002391217 0.003076963
0.04843196 0.00272767 0.00347805
0.05124272 0.00308815 0.003902101
0.05404674 0.003472936 0.004348785
0.05684363 0.00388229 0.004817763
0.059633 0.004316463 0.005308683
0.06241447 0.004775692 0.005821182
0.06518765 0.0052602 0.006354891
0.06795216 0.005770196 0.006909428
0.07070762 0.006305878 0.007484404
0.07345366 0.006867427 0.008079422
0.07618991 0.007455012 0.008694079
0.078916 0.008068789 0.009327961
0.08163158 0.008708902 0.009980652
0.08433629 0.009375478 0.01065173
0.08702977 0.01006864 0.01134075
0.0897117 0.01078848 0.0120473
0.09238173 0.01153509 0.01277093
0.09503952 0.01230856 0.01351119
0.09768476 0.01310894 0.01426764
0.1003171 0.0139363 0.01503984
0.1029363 0.01479066 0.01582731
0.105542 0.01567207 0.01662962
0.1081338 0.01658053 0.0174463
0.1107116 0.01751606 0.0182769
0.1132751 0.01847866 0.01912095
0.1158238 0.01946829 0.01997799
0.1183577 0.02048494 0.02084757
0.1208763 0.02152857 0.02172922
0.1233795 0.02259914 0.02262248
0.1258671 0.02369658 0.0235269
0.1283386 0.02482083 0.02444201
0.1307941 0.02597181 0.02536735
0.1332331 0.02714945 0.02630248
0.1356555 0.02835363 0.02724694
0.1380611 0.02958427 0.02820027
0.1404496 0.03084126 0.02916204
0.1428209 0.03212446 0.03013178
0.1451748 0.03343376 0.03110907
0.1475111 0.03476903 0.03209345
0.1498296 0.03613011 0.0330845
0.1521301 0.03751687 0.03408177
0.1544125 0.03892915 0.03508485
0.1566766 0.0403668 0.03609331
0.1589223 0.04182963 0.03710673
0.1611495 0.04331749 0.03812468
0.1633579 0.04483018 0.03914677
0.1655475 0.04636754 0.04017257
0.1677182 0.04792937 0.0412017
0.1698698 0.04951548 0.04223374
0.1720021 0.05112567 0.04326832
0.1741152 0.05275974 0.04430503
0.1762089 0.05441748 0.04534351
0.1782831 0.05609869 0.04638337
0.1803378 0.05780315 0.04742424
0.1823727 0.05953065 0.04846575
0.184388 0.06128096 0.04950755
0.1863834 0.06305386 0.05054927
0.188359 0.06484913 0.05159057
0.1903146 0.06666655 0.0526311
0.1922502 0.06850587 0.05367052
0.1941658 0.07036687 0.0547085
0.1960612 0.07224931 0.05574472
0.1979365 0.07415296 0.05677884
0.1997917 0.07607758 0.05781055
0.2016266 0.07802293 0.05883954
0.2034412 0.07998877 0.0598655
0.2052356 0.08197486 0.06088814
0.2070097 0.08398095 0.06190715
0.2087634 0.08600681 0.06292225
0.2104968 0.08805218 0.06393315
0.2122098 0.09011683 0.06493958
0.2139025 0.0922005 0.06594125
0.2155748 0.09430295 0.06693791
0.2172266 0.09642394 0.06792929
0.2188581 0.09856321 0.06891513
0.2204692 0.1007205 0.06989517
0.2220599 0.1028956 0.07086918
0.2236302 0.1050883 0.0718369
0.2251801 0.1072983 0.0727981
0.2267097 0.1095253 0.07375255
0.2282189 0.1117691 0.07470002
0.2297077 0.1140295 0.07564028
0.2311762 0.1163062 0.07657312
0.2326244 0.118599 0.07749832
0.2340523 0.1209076 0.07841568
0.2354599 0.1232318 0.07932498
0.2368472 0.1255714 0.08022603
0.2382143 0.127926 0.08111863
0.2395612 0.1302956 0.08200259
0.2408879 0.1326797 0.08287773
0.2421944 0.1350782 0.08374385
0.2434808 0.1374909 0.08460079
0.2447471 0.1399175 0.08544836
0.2459933 0.1423577 0.08628639
0.2472194 0.1448114 0.08711473
0.2484255 0.1472783 0.08793319
0.2496116 0.1497582 0.08874163
0.2507777 0.1522508 0.08953989
0.2519239 0.1547559 0.09032782
0.2530502 0.1572732 0.09110526
0.2541567 0.1598027 0.09187208
0.2552432 0.1623439 0.09262812
0.25631 0.1648967 0.09337327
0.257357 0.1674609 0.09410737
0.2583843 0.1700362 0.0948303
0.2593919 0.1726224 0.09554192
0.2603797 0.1752193 0.09624213
0.261348 0.1778267 0.09693078
0.2622966 0.1804443 0.09760777
0.2632257 0.1830719 0.09827298
0.2641352 0.1857094 0.0989263
0.2650252 0.1883564 0.09956761
0.2658957 0.1910128 0.1001968
0.2667468 0.1936783 0.1008138
0.2675784 0.1963528 0.1014185
0.2683907 0.199036 0.1020107
0.2691836 0.2017277 0.1025905
0.2699572 0.2044277 0.1031576
0.2707115 0.2071358 0.1037121
0.2714466 0.2098517 0.1042538
0.2721624 0.2125754 0.1047826
0.272859 0.2153064 0.1052984
0.2735364 0.2180447 0.1058013
0.2741946 0.2207901 0.106291
0.2748338 0.2235423 0.1067676
0.2754538 0.2263011 0.1072309
0.2760548 0.2290663 0.1076809
0.2766367 0.2318377 0.1081175
0.2771996 0.2346152 0.1085406
0.2777436 0.2373984 0.1089502
0.2782685 0.2401873 0.1093463
0.2787745 0.2429815 0.1097287
0.2792615 0.245781 0.1100974
0.2797297 0.2485854 0.1104524
0.2801789 0.2513947 0.1107935
0.2806093 0.2542085 0.1111209
0.2810209 0.2570268 0.1114343
0.2814136 0.2598492 0.1117338
0.2817875 0.2626757 0.1120193
0.2821425 0.2655059 0.1122908
0.2824789 0.2683398 0.1125482
0.2827964 0.2711771 0.1127915
0.2830952 0.2740175 0.1130207
0.2833752 0.276861 0.1132357
0.2836366 0.2797073 0.1134365
0.2838792 0.2825563 0.1136231
0.2841031 0.2854076 0.1137954
0.2843083 0.2882612 0.1139535
0.2844948 0.2911169 0.1140972
0.2846626 0.2939744 0.1142267
0.2848118 0.2968335 0.1143418
0.2849423 0.2996941 0.1144425
0.2850542 0.3025559 0.1145289
0.2851474 0.3054188 0.1146009
0.285222 0.3082826 0.1146586
0.2852779 0.311147 0.1147018
0.2853152 0.314012 0.1147306
0.2853338 0.3168772 0.114745
0.2853338 0.3197426 0.114745
0.2853152 0.3226078 0.1147306
0.2852779 0.3254727 0.1147018
0.285222 0.3283372 0.1146586
0.2851474 0.331201 0.1146009
0.2850542 0.3340639 0.1145289
0.2849423 0.3369257 0.1144425
0.2848118 0.3397863 0.1143418
0.2846626 0.3426454 0.1142267
0.2844948 0.3455029 0.1140972
0.2843083 0.3483585 0.1139535
0.2841031 0.3512121 0.1137954
0.2838792 0.3540635 0.1136231
0.2836366 0.3569124 0.1134365
0.2833752 0.3597587 0.1132357
0.2830952 0.3626022 0.1130207
0.2827964 0.3654427 0.1127915
0.2824789 0.36828 0.1125482
0.2821425 0.3711138 0.1122908
0.2817875 0.3739441 0.1120193
0.2814136 0.3767705 0.1117338
0.2810209 0.379593 0.1114343
0.2806093 0.3824112 0.1111209
0.2801789 0.3852251 0.1107935
0.2797297 0.3880343 0.1104524
0.2792615 0.3908388 0.1100974
0.2787745 0.3936382 0.1097287
0.2782685 0.3964325 0.1093463
0.2777436 0.3992213 0.1089502
0.2771996 0.4020046 0.1085406
0.2766367 0.404782 0.1081175
0.2760548 0.4075535 0.1076809
0.2754538 0.4103187 0.1072309
0.2748338 0.4130775 0.1067676
0.2741946 0.4158297 0.106291
0.2735364 0.418575 0.1058013
0.272859 0.4213133 0.1052984
0.2721624 0.4240444 0.1047826
0.2714466 0.426768 0.1042538
0.2707115 0.429484 0.1037121
0.2699572 0.4321921 0.1031576
0.2691836 0.4348921 0.1025905
0.2683907 0.4375838 0.1020107
0.2675784 0.440267 0.1014185
0.2667468 0.4429415 0.1008138
0.2658957 0.445607 0.1001968
0.2650252 0.4482634 0.09956761
0.2641352 0.4509104 0.0989263
0.2632257 0.4535479 0.09827298
0.2622966 0.4561755 0.09760777
0.261348 0.4587931 0.09693078
0.2603797 0.4614005 0.09624213
0.2593919 0.4639974 0.09554192
0.2583843 0.4665836 0.0948303
0.257357 0.4691589 0.09410737
0.25631 0.4717231 0.09337327
0.2552432 0.4742759 0.09262812
0.2541567 0.4768171 0.09187208
0.2530502 0.4793465 0.09110526
0.2519239 0.4818639 0.09032782
0.2507777 0.484369 0.08953989
0.2496116 0.4868616 0.08874163
0.2484255 0.4893414 0.08793319
0.2472194 0.4918083 0.08711473
0.2459933 0.494262 0.08628639
0.2447471 0.4967023 0.08544836
0.2434808 0.4991289 0.08460079
0.2421944 0.5015415 0.08374385
0.2408879 0.5039401 0.08287773
0.2395612 0.5063242 0.08200259
0.2382143 0.5086937 0.08111863
0.2368472 0.5110484 0.08022603
0.2354599 0.513388 0.07932498
0.2340523 0.5157122 0.07841568
0.2326244 0.5180208 0.07749832
0.2311762 0.5203136 0.07657312
0.2297077 0.5225903 0.07564028
0.2282189 0.5248507 0.07470002
0.2267097 0.5270945 0.07375255
0.2251801 0.5293215 0.0727981
0.2236302 0.5315315 0.0718369
0.2220599 0.5337241 0.07086918
0.2204692 0.5358992 0.06989517
0.2188581 0.5380566 0.06891513
0.2172266 0.5401958 0.06792929
0.2155748 0.5423168 0.06693791
0.2139025 0.5444193 0.06594125
0.2122098 0.5465029 0.06493958
0.2104968 0.5485676 0.06393315
0.2087634 0.550613 0.06292225
0.2070097 0.5526388 0.06190715
0.2052356 0.5546449 0.06088814
0.2034412 0.556631 0.0598655
0.2016266 0.5585968 0.05883954
0.1997917 0.5605422 0.05781055
0.1979365 0.5624668 0.05677884
0.1960612 0.5643705 0.05574472
0.1941658 0.5662529 0.0547085
0.1922502 0.5681139 0.05367052
0.1903146 0.5699532 0.0526311
0.188359 0.5717706 0.05159057
0.1863834 0.5735659 0.05054927
0.184388 0.5753388 0.04950755
0.1823727 0.5770891 0.04846575
0.1803378 0.5788166 0.04742424
0.1782831 0.5805211 0.04638337
0.1762089 0.5822023 0.04534351
0.1741152 0.58386 0.04430503
0.1720021 0.5854941 0.04326832
0.1698698 0.5871043 0.04223374
0.1677182 0.5886904 0.0412017
0.1655475 0.5902522 0.04017257
0.1633579 0.5917896 0.03914677
0.1611495 0.5933023 0.03812468
0.1589223 0.5947901 0.03710673
0.1566766 0.596253 0.03609331
0.1544125 0.5976906 0.03508485
0.1521301 0.5991029 0.03408177
0.1498296 0.6004897 0.0330845
0.1475111 0.6018507 0.03209345
0.1451748 0.603186 0.03110907
0.1428209 0.6044953 0.03013178
0.1404496 0.6057785 0.02916204
0.1380611 0.6070355 0.02820027
0.1356555 0.6082661 0.02724694
0.1332331 0.6094703 0.02630248
0.1307941 0.610648 0.02536735
0.1283386 0.6117989 0.02444201
0.1258671 0.6129232 0.0235269
0.1233795 0.6140206 0.02262248
0.1208763 0.6150912 0.02172922
0.1183577 0.6161348 0.02084757
0.1158238 0.6171515 0.01997799
0.1132751 0.6181411 0.01912095
0.1107116 0.6191037 0.0182769
0.1081338 0.6200392 0.0174463
0.105542 0.6209477 0.01662962
0.1029363 0.6218291 0.01582731
0.1003171 0.6226835 0.01503984
0.09768476 0.6235108 0.01426764
0.09503952 0.6243112 0.01351119
0.09238173 0.6250847 0.01277093
0.0897117 0.6258313 0.0120473
0.08702977 0.6265511 0.01134075
0.08433629 0.6272443 0.01065173
0.08163158 0.6279109 0.009980652
0.078916 0.628551 0.009327961
0.07618991 0.6291648 0.008694079
0.07345366 0.6297523 0.008079422
0.07070762 0.6303139 0.007484404
0.06795216 0.6308496 0.006909428
0.06518765 0.6313596 0.006354891
0.06241447 0.6318441 0.005821182
0.059633 0.6323033 0.005308683
0.05684363 0.6327375 0.004817763
0.05404674 0.6331468 0.004348785
0.05124272 0.6335316 0.003902101
0.04843196 0.6338921 0.00347805
0.04561486 0.6342286 0.003076963
0.04279182 0.6345413 0.002699156
0.03996322 0.6348306 0.002344937
0.03712947 0.6350967 0.002014597
0.03429096 0.6353401 0.001708416
0.03144809 0.635561 0.001426659
0.02860125 0.6357599 0.001169578
0.02575084 0.635937 0.0009374097
0.02289725 0.6360928 0.0007303743
0.02004087 0.6362276 0.0005486775
0.01718208 0.6363419 0.0003925084
0.01432127 0.636436 0.0002620393
0.01145882 0.6365104 0.0001574255
0.008595101 0.6365655 7.880436e-05
0.005730482 0.6366019 2.629552e-05
0.00286533 0.6366198 0
0 0.6366198 0

LINES 349 1047
2 0 1
2 1 2
2 2 3
2 3 4
2 4 5
2 5 6
2 6 7
2 7 8
2 8 9
2 9 10
2 10 11
2 11 12
2 12 13
2 13 14
2 14 15
2 15 16
2 16 17
2 17 18
2 18 19
2 19 20
2 20 21
2 21 22
2 22 23
2 23 24
2 24 25
2 25 26
2 26 27
2 27 28
2 28 29
2 29 30
2 30 31
2 31 32
2 32 33
2 33 34
2 34 35
2 35 36
2 36 37
2 37 38
2 38 39
2 39 40
2 40 41
2 41 42
2 42 43
2 43 44
2 44 45
2 45 46
2 46 47
2 47 48
2 48 49
2 49 50
2 50 51
2 51 52
2 52 53
2 53 54
2 54 55
2 55 56
2 56 57
2 57 58
2 58 59
2 59 60
2 60 61
2 61 62
2 62 63
2 63 64
2 64 65
2 65 66
2 66 67
2 67 68
2 68 69
2 69 70
2 70 71
2 71 72
2 72 73
2 73 74
2 74 75
2 75 76
2 76 77
2 77 78
2 78 79
2 79 80
2 80 81
2 81 82
2 82 83
2 83 84
2 84 85
2 85 86
2 86 87
2 87 88
2 88 89
2 89 90
2 90 91
2 91 92
2 92 93
2 93 94
2 94 95
2 95 96
2 96 97
2 97 98
2 98 99
2 99 100
2 100 101
2 101 102
2 102 103
2 103 104
2 104 105
2 105 106
2 106 107
2 107 108
2 108 109
2 109 110
2 110 111
2 111 112
2 112 113
2 113 114
2 114 115
2 115 116
2 116 117
2 117 118
2 118 119
2 119 120
2 120 121
2 121 122
2 122 123
2 123 124
2 124 125
2 125 126
2 126 127
2 127 128
2 128 129
2 129 130
2 130 131
2 131 132
2 132 133
2 133 134
2 134 135
2 135 136
2 136 137
2 137 138
2 138 139
2 139 140
2 140 141
2 141 142
2 142 143
2 143 144
2 144 145
2 145 146
2 146 147
2 147 148
2 148 149
2 149 150
2 150 151
2 151 152
2 152 153
2 153 154
2 154 155
2 155 156
2 156 157
2 157 158
2 158 159
2 159 160
2 160 161
2 161 162
2 162 163
2 163 164
2 164 165
2 165 166
2 166 167
2 167 168
2 168 169
2 169 170
2 170 171
2 171 172
2 172 173
2 173 174
2 174 175
2 175 176
2 176 177
2 177 178
2 178 179
2 179 180
2 180 181
2 181 182
2 182 183
2 183 184
2 184 185
2 185 186
2 186 187
2 187 188
2 188 189
2 189 190
2 190 191
2 191 192
2 192 193
2 193 194
2 194 195
2 195 196
2 196 197
2 197 198
2 198 199
2 199 200
2 200 201
2 201 202
2 202 203
2 203 204
2 204 205
2 205 206
2 206 207
2 207 208
2 208 209
2 209 210
2 210 211
2 211 212
2 212 213
2 213 214
2 214 215
2 215 216
2 216 217
2 217 218
2 218 219
2 219 220
2 220 221
2 221 222
2 222 223
2 223 224
2 224 225
2 225 226
2 226 227
2 227 228
2 228 229
2 229 230
2 230 231
2 231 232
2 232 233
2 233 234
2 234 235
2 235 236
2 236 237
2 237 238
2 238 239
2 239 240
2 240 241
2 241 242
2 242 243
2 243 244
2 244 245
2 245 246
2 246 247
2 247 248
2 248 249
2 249 250
2 250 251
2 251 252
2 252 253
2 253 254
2 254 255
2 255 256
2 256 257
2 257 258
2 258 259
2 259 260
2 260 261
2 261 262
2 262 263
2 263 264
2 264 265
2 265 266
2 266 267
2 267 268
2 268 269
2 269 270
2 270 271
2 271 272
2 272 273
2 273 274
2 274 275
2 275 276
2 276 277
2 277 278
2 278 279
2 279 280
2 280 281
2 281 282
2 282 283
2 283 284
2 284 285
2 285 286
2 286 287
2 287 288
2 288 289
2 289 290
2 290 291
2 291 292
2 292 293
2 293 294
2 294 295
2 295 296
2 296 297
2 297 298
2 298 299
2 299 300
2 300 301
2 301 302
2 302 303
2 303 304
2 304 305
2 305 306
2 306 307
2 307 308
2 308 309
2 309 310
2 310 311
2 311 312
2 312 313
2 313 314
2 314 315
2 315 316
2 316 317
2 317 318
2 318 319
2 319 320
2 320 321
2 321 322
2 322 323
2 323 324
2 324 325
2 325 326
2 326 327
2 327 328
2 328 329
2 329 330
2 330 331
2 331 332
2 332 333
2 333 334
2 334 335
2 335 336
2 336 337
2 337 338
2 338 339
2 339 340
2 340 341
2 341 342
2 342 343
2 343 344
2 344 345
2 345 346
2 346 347
2 347 348
2 348 349


POINT_DATA 350
SCALARS a FLOAT 1
LOOKUP_TABLE default
0.0005894628
0.0005894628
0.0005894628
0.0005894628
0.0005894628
0.0005894628
0.0005894628
0.0005894628
0.0005894628
0.0005894628
0.0005894628
0.0005894628
0.0005894628
0.0005894628
0.0005894628
0.0005894628
0.0005894628
0.0005894628
0.0005894628
0.0005894628
0.0005894628
0.0005894628
0.0005894628
0.0005894628
0.0005894628
0.0005894628
0.0005894628
0.0005894628
0.0005894628
0.0005894628
0.0005894628
0.0005894628
0.0005894628
0.0005894628
0.0005894628
0.0005894628
0.0005894628
0.0005894628
0.0005894628
0.0005894628
0.0005894628
0.0005894628
0.0005894628
0.0005894628
0.0005894628
0.0005894628
0.0005894628
0.0005894628
0.0005894628
0.0005894628
0.0005894628
0.0005894628
0.0005894628
0.0005894628
0.0005894628
0.0005894628
0.0005894628
0.0005894628
0.0005894628
0.0005894628
0.0005894628
0.0005894628
0.0005894628
0.0005894628
0.0005894628
0.0005894628
0.0005894628
0.0005894628
0.0005894628
0.0005894628
0.0005894628
0.0005894628
0.0005894628
0.0005894628
0.0005894628
0.0005894628
0.0005894628
0.0005894628
0.0005894628
0.0005894628
0.0005894628
0.0005894628
0.0005894628
0.0005894628
0.0005894628
0.0005894628
0.0005894628
0.0005894628
0.0005894628
0.0005894628
0.0005894628
0.0005894628
0.0005894628
0.0005894628
0.0005894628
0.0005894628
0.0005894628
0.0005894628
0.0005894628
0.0005894628
0.0005894628
0.0005894628
0.0005894628
0.0005894628
0.0005894628
0.0005894628
0.0005894628
0.0005894628
0.0005894628
0.0005894628
0.0005894628
0.0005894628
0.0005894628
0.0005894628
0.0005894628
0.0005894628
0.0005894628
0.0005894628
0.0005894628
0.0005894628
0.0005894628
0.0005894628
0.0005894628
0.0005894628
0.0005894628
0.0005894628
0.0005894628
0.0005894628
0.0005894628
0.0005894628
0.0005894628
0.0005894628
0.0005894628
0.0005894628
0.0005894628
0.0005894628
0.0005894628
0.0005894628
0.0005894628
0.0005894628
0.0005894628
0.0005894628
0.0005894628
0.0005894628
0.0005894628
0.0005894628
0.0005894628
0.0005894628
0.0005894628
0.0005894628
0.0005894628
0.0005894628
0.0005894628
0.0005894628
0.0005894628
0.0005894628
0.0005894628
0.0005894628
0.0005894628
0.0005894628
0.0005894628
0.0005894628
0.0005894628
0.0005894628
0.0005894628
0.0005894628
0.0005894628
0.0005894628
0.0005894628
0.0005894628
0.0005894628
0.0005894628
0.0005894628
0.0005894628
0.0005894628
0.0005894628
0.0005894628
0.0005894628
0.0005894628
0.0005894628
0.0005894628
0.0005894628
0.0005894628
0.0005894628
0.0005894628
0.0005894628
0.0005894628
0.0005894628
0.0005894628
0.0005894628
0.0005894628
0.0005894628
0.0005894628
0.0005894628
0.0005894628
0.0005894628
0.0005894628
0.0005894628
0.0005894628
0.0005894628
0.0005894628
0.0005894628
0.0005894628
0.0005894628
0.0005894628
0.0005894628
0.0005894628
0.0005894628
0.0005894628
0.0005894628
0.0005894628
0.0005894628
0.0005894628
0.0005894628
0.0005894628
0.0005894628
0.0005894628
0.0005894628
0.0005894628
0.0005894628
0.0005894628
0.0005894628
0.0005894628
0.0005894628
0.0005894628
0.0005894628
0.0005894628
0.0005894628
0.0005894628
0.0005894628
0.0005894628
0.0005894628
0.0005894628
0.0005894628
0.0005894628
0.0005894628
0.0005894628
0.0005894628
0.0005894628
0.0005894628
0.0005894628
0.0005894628
0.0005894628
0.0005894628
0.0005894628
0.0005894628
0.0005894628
0.0005894628
0.0005894628
0.0005894628
0.0005894628
0.0005894628
0.0005894628
0.0005894628
0.0005894628
0.0005894628
0.0005894628
0.0005894628
0.0005894628
0.0005894628
0.0005894628
0.0005894628
0.0005894628
0.0005894628
0.0005894628
0.0005894628
0.0005894628
0.0005894628
0.0005894628
0.0005894628
0.0005894628
0.0005894628
0.0005894628
0.0005894628
0.0005894628
0.0005894628
0.0005894628
0.0005894628
0.0005894628
0.0005894628
0.0005894628
0.0005894628
0.0005894628
0.0005894628
0.0005894628
0.0005894628
0.0005894628
0.0005894628
0.0005894628
0.0005894628
0.0005894628
0.0005894628
0.0005894628
0.0005894628
0.0005894628
0.0005894628
0.0005894628
0.0005894628
0.0005894628
0.0005894628
0.0005894628
0.0005894628
0.0005894628
0.0005894628
0.0005894628
0.0005894628
0.0005894628
0.0005894628
0.0005894628
0.0005894628
0.0005894628
0.0005894628
0.0005894628
0.0005894628
0.0005894628
0.0005894628
0.0005894628
0.0005894628
0.0005894628
0.0005894628
0.0005894628
0.0005894628
0.0005894628
0.0005894628
0.0005894628
0.0005894628
0.0005894628
0.0005894628
0.0005894628
0.0005894628
0.0005894628
0.0005894628
0.0005894628
0.0005894628
0.0005894628
0.0005894628
0.0005894628
0.0005894628
0.0005894628
0.0005894628
0.0005894628
0.0005894628
0.0005894628
0.0005894628
0.0005894628
0.0005894628
0.0005894628
0.0005894628
0.0005894628
0.0005894628


SCALARS b FLOAT 1
LOOKUP_TABLE default
0.02357851
0.02357851
0.02357851
0.02357851
0.02357851
0.02357851
0.02357851
0.02357851
0.02357851
0.02357851
0.02357851
0.02357851
0.02357851
0.02357851
0.02357851
0.02357851
0.02357851
0.02357851
0.02357851
0.02357851
0.02357851
0.02357851
0.02357851
0.02357851
0.02357851
0.02357851
0.02357851
0.02357851
0.02357851
0.02357851
0.02357851
0.02357851
0.02357851
0.02357851
0.02357851
0.02357851
0.02357851
0.02357851
0.02357851
0.02357851
0.02357851
0.02357851
0.02357851
0.02357851
0.02357851
0.02357851
0.02357851
0.02357851
0.02357851
0.02357851
0.02357851
0.02357851
0.02357851
0.02357851
0.02357851
0.02357851
0.02357851
0.02357851
0.02357851
0.02357851
0.02357851
0.02357851
0.02357851
0.02357851
0.02357851
0.02357851
0.02357851
0.02357851
0.02357851
0.02357851
0.02357851
0.02357851
0.02357851
0.02357851
0.02357851
0.02357851
0.02357851
0.02357851
0.02357851
0.02357851
0.02357851
0.02357851
0.02357851
0.02357851
0.02357851
0.02357851
0.02357851
0.02357851
0.02357851
0.02357851
0.02357851
0.02357851
0.02357851
0.02357851
0.02357851
0.02357851
0.02357851
0.02357851
0.02357851
0.02357851
0.02357851
0.02357851
0.02357851
0.02357851
0.02357851
0.02357851
0.02357851
0.02357851
0.02357851
0.02357851
0.02357851
0.02357851
0.02357851
0.02357851
0.02357851
0.02357851
0.02357851
0.02357851
0.02357851
0.02357851
0.02357851
0.02357851
0.02357851
0.02357851
0.02357851
0.02357851
0.02357851
0.02357851
0.02357851
0.02357851
0.02357851
0.02357851
0.02357851
0.02357851
0.02357851
0.02357851
0.02357851
0.02357851
0.02357851
0.02357851
0.02357851
0.02357851
0.02357851
0.02357851
0.02357851
0.02357851
0.02357851
0.02357851
0.02357851
0.02357851
0.02357851
0.02357851
0.02357851
0.02357851
0.02357851
0.02357851
0.02357851
0.02357851
0.02357851
0.02357851
0.02357851
0.02357851
0.02357851
0.02357851
0.02357851
0.02357851
0.02357851
0.02357851
0.02357851
0.02357851
0.02357851
0.02357851
0.02357851
0.02357851
0.02357851
0.02357851
0.02357851
0.02357851
0.02357851
0.02357851
0.02357851
0.02357851
0.02357851
0.02357851
0.02357851
0.02357851
0.02357851
0.02357851
0.02357851
0.02357851
0.02357851
0.02357851
0.02357851
0.02357851
0.02357851
0.02357851
0.02357851
0.02357851
0.02357851
0.02357851
0.02357851
0.02357851
0.02357851
0.02357851
0.02357851
0.02357851
0.02357851
0.02357851
0.02357851
0.02357851
0.02357851
0.02357851
0.02357851
0.02357851
0.02357851
0.02357851
0.02357851
0.02357851
0.02357851
0.02357851
0.02357851
0.02357851
0.02357851
0.02357851
0.02357851
0.02357851
0.02357851
0.02357851
0.02357851
0.02357851
0.02357851
0.02357851
0.02357851
0.02357851
0.02357851
0.02357851
0.02357851
0.02357851
0.02357851
0.02357851
0.02357851
0.02357851
0.02357851
0.02357851
0.02357851
0.02357851
0.02357851
0.02357851
0.02357851
0.02357851
0.02357851
0.02357851
0.02357851
0.02357851
0.02357851
0.02357851
0.02357851
0.02357851
0.02357851
0.02357851
0.02357851
0.02357851
0.02357851
0.02357851
0.02357851
0.02357851
0.02357851
0.02357851
0.02357851
0.02357851
0.02357851
0.02357851
0.02357851
0.02357851
0.02357851
0.02357851
0.02357851
0.02357851
0.02357851
0.02357851
0.02357851
0.02357851
0.02357851
0.02357851
0.02357851
0.02357851
0.02357851
0.02357851
0.02357851
0.02357851
0.02357851
0.02357851
0.02357851
0.02357851
0.02357851
0.02357851
0.02357851
0.02357851
0.02357851
0.02357851
0.02357851
0.02357851
0.02357851
0.02357851
0.02357851
0.02357851
0.02357851
0.02357851
0.02357851
0.02357851
0.02357851
0.02357851
0.02357851
0.02357851
0.02357851
0.02357851
0.02357851
0.02357851
0.02357851
0.02357851
0.02357851
0.02357851
0.02357851
0.02357851
0.02357851
0.02357851
0.02357851
0.02357851
0.02357851
0.02357851
0.02357851
0.02357851
0.02357851
0.02357851
0.02357851
0.02357851
0.02357851
0.02357851
0.02357851
0.02357851
0.02357851
0.02357851
0.02357851
0.02357851
0.02357851
0.02357851
0.02357851
0.02357851
0.02357851
0.02357851


VECTORS d1 FLOAT
0 0.5568756 0.8305959
-0.01110541 0.5679303 0.8230018
-0.02227713 0.5787687 0.8151874
-0.03350802 0.589387 0.8071556
-0.04479098 0.5997814 0.7989093
-0.05611899 0.6099481 0.7904518
-0.06748511 0.6198838 0.7817863
-0.07888246 0.6295853 0.7729165
-0.09030425 0.6390494 0.7638462
-0.1017438 0.6482735 0.7545791
-0.1131945 0.6572549 0.7451195
-0.1246498 0.6659911 0.7354715
-0.1361033 0.67448 0.7256395
-0.1475488 0.6827195 0.715628
-0.15898 0.6907078 0.7054418
-0.170391 0.6984434 0.6950854
-0.1817758 0.7059248 0.6845639
-0.1931286 0.7131508 0.6738822
-0.2044437 0.7201206 0.6630454
-0.2157156 0.7268331 0.6520586
-0.226939 0.733288 0.640927
-0.2381085 0.7394847 0.6296561
-0.2492191 0.745423 0.6182511
-0.2602658 0.7511029 0.6067175
-0.2712439 0.7565246 0.5950607
-0.2821487 0.7616885 0.5832862
-0.2929757 0.7665949 0.5713996
-0.3037206 0.7712446 0.5594065
-0.3143792 0.7756384 0.5473123
-0.3249475 0.7797774 0.5351227
-0.3354217 0.7836628 0.5228432
-0.345798 0.7872957 0.5104794
-0.356073 0.7906778 0.4980368
-0.3662432 0.7938106 0.485521
-0.3763055 0.7966958 0.4729375
-0.3862569 0.7993354 0.4602917
-0.3960943 0.8017314 0.4475891
-0.4058152 0.8038858 0.4348351
-0.4154169 0.805801 0.422035
-0.4248971 0.8074792 0.409194
-0.4342534 0.808923 0.3963175
-0.4434838 0.8101348 0.3834106
-0.4525863 0.8111174 0.3704783
-0.4615592 0.8118734 0.3575258
-0.4704007 0.8124057 0.3445579
-0.4791093 0.8127172 0.3315795
-0.4876837 0.8128108 0.3185955
-0.4961227 0.8126896 0.3056105
-0.5044252 0.8123567 0.2926292
-0.5125901 0.8118151 0.2796562
-0.5206168 0.8110682 0.2666957
-0.5285044 0.810119 0.2537523
-0.5362525 0.808971 0.2408302
-0.5438605 0.8076274 0.2279335
-0.5513282 0.8060916 0.2150663
-0.5586553 0.804367 0.2022326
-0.5658418 0.8024569 0.1894362
-0.5728876 0.8003647 0.176681
-0.5797928 0.798094 0.1639705
-0.5865577 0.795648 0.1513084
-0.5931826 0.7930304 0.1386981
-0.599668 0.7902444 0.1261431
-0.6060142 0.7872936 0.1136465
-0.612222 0.7841814 0.1012115
-0.6182919 0.7809112 0.08884128
-0.6242248 0.7774865 0.07653871
-0.6300215 0.7739105 0.0643067
-0.6356829 0.7701868 0.05214802
-0.6412101 0.7663187 0.04006534
-0.646604 0.7623096 0.02806125
-0.6518657 0.7581627 0.01613824
-0.6569966 0.7538813 0.0042987
-0.6619978 0.7494687 -0.007455064
-0.6668706 0.7449282 -0.01912084
-0.6716164 0.7402629 -0.03069651
-0.6762366 0.735476 -0.04218003
-0.6807327 0.7305706 -0.05356946
-0.6851061 0.7255497 -0.06486293
-0.6893584 0.7204166 -0.07605867
-0.6934912 0.715174 -0.08715495
-0.6975062 0.7098251 -0.09815018
-0.7014049 0.7043727 -0.1090428
-0.705189 0.6988197 -0.1198314
-0.7088603 0.6931688 -0.1305144
-0.7124205 0.687423 -0.1410907
-0.7158714 0.6815849 -0.151559
-0.7192147 0.6756572 -0.161918
-0.7224524 0.6696426 -0.1721667
-0.7255861 0.6635436 -0.182304
-0.7286177 0.6573628 -0.1923289
-0.7315492 0.6511026 -0.2022406
-0.7343823 0.6447655 -0.212038
-0.7371189 0.6383539 -0.2217205
-0.739761 0.6318701 -0.2312872
-0.7423104 0.6253165 -0.2407375
-0.744769 0.6186952 -0.2500707
-0.7471388 0.6120084 -0.2592863
-0.7494215 0.6052583 -0.2683835
-0.7516192 0.598447 -0.2773621
-0.7537337 0.5915765 -0.2862214
-0.755767 0.5846488 -0.2949611
-0.7577208 0.5776659 -0.3035808
-0.7595971 0.5706296 -0.3120802
-0.7613979 0.5635418 -0.3204589
-0.7631248 0.5564043 -0.3287168
-0.7647799 0.5492188 -0.3368535
-0.766365 0.5419872 -0.3448689
-0.7678819 0.5347109 -0.3527629
-0.7693325 0.5273916 -0.3605352
-0.7707185 0.520031 -0.3681858
-0.7720418 0.5126305 -0.3757146
-0.7733041 0.5051916 -0.3831216
-0.7745073 0.4977158 -0.3904067
-0.775653 0.4902045 -0.39757
-0.7767431 0.482659 -0.4046114
-0.7777793 0.4750806 -0.4115311
-0.7787631 0.4674707 -0.418329
-0.7796964 0.4598305 -0.4250052
-0.7805809 0.4521611 -0.4315598
-0.781418 0.4444637 -0.4379931
-0.7822095 0.4367395 -0.4443049
-0.7829569 0.4289896 -0.4504956
-0.7836619 0.421215 -0.4565653
-0.784326 0.4134168 -0.4625141
-0.7849507 0.4055958 -0.4683422
-0.7855375 0.3977532 -0.4740499
-0.7860879 0.3898897 -0.4796372
-0.7866033 0.3820064 -0.4851044
-0.7870853 0.374104 -0.4904517
-0.7875352 0.3661835 -0.4956794
-0.7879543 0.3582455 -0.5007876
-0.7883441 0.3502909 -0.5057765
-0.7887058 0.3423204 -0.5106465
-0.7890408 0.3343348 -0.5153978
-0.7893503 0.3263347 -0.5200305
-0.7896357 0.3183208 -0.5245449
-0.789898 0.3102938 -0.5289413
-0.7901386 0.3022543 -0.5332199
-0.7903585 0.2942028 -0.5373809
-0.7905589 0.28614 -0.5414246
-0.7907409 0.2780663 -0.5453513
-0.7909055 0.2699824 -0.5491611
-0.791054 0.2618888 -0.5528543
-0.7911871 0.2537859 -0.5564312
-0.791306 0.2456742 -0.5598919
-0.7914117 0.2375542 -0.5632367
-0.7915049 0.2294263 -0.5664658
-0.7915867 0.221291 -0.5695795
-0.7916579 0.2131485 -0.572578
-0.7917193 0.2049994 -0.5754614
-0.7917718 0.196844 -0.57823
-0.7918161 0.1886827 -0.5808839
-0.791853 0.1805158 -0.5834234
-0.7918832 0.1723436 -0.5858487
-0.7919074 0.1641665 -0.5881599
-0.7919262 0.1559848 -0.5903572
-0.7919403 0.1477988 -0.5924408
-0.7919502 0.1396087 -0.5944108
-0.7919566 0.1314148 -0.5962674
-0.7919599 0.1232175 -0.5980108
-0.7919607 0.115017 -0.599641
-0.7919594 0.1068134 -0.6011582
-0.7919564 0.09860718 -0.6025626
-0.7919522 0.09039843 -0.6038542
-0.7919471 0.08218742 -0.6050331
-0.7919415 0.07397436 -0.6060994
-0.7919356 0.06575949 -0.6070533
-0.7919298 0.05754302 -0.6078947
-0.7919243 0.04932515 -0.6086239
-0.7919192 0.04110609 -0.6092407
-0.7919149 0.03288605 -0.6097453
-0.7919113 0.02466522 -0.6101378
-0.7919087 0.01644381 -0.6104181
-0.7919071 0.008222001 -0.6105862
-0.7919066 -1.025846e-13 -0.6106423
-0.7919071 -0.008222001 -0.6105862
-0.7919087 -0.01644381 -0.6104181
-0.7919113 -0.02466522 -0.6101378
-0.7919149 -0.03288605 -0.6097453
-0.7919192 -0.04110609 -0.6092407
-0.7919243 -0.04932515 -0.6086239
-0.7919298 -0.05754302 -0.6078947
-0.7919356 -0.06575949 -0.6070533
-0.7919415 -0.07397436 -0.6060994
-0.7919471 -0.08218742 -0.6050331
-0.7919522 -0.09039843 -0.6038542
-0.7919564 -0.09860718 -0.6025626
-0.7919594 -0.1068134 -0.6011582
-0.7919607 -0.115017 -0.599641
-0.7919599 -0.1232175 -0.5980108
-0.7919566 -0.1314148 -0.5962674
-0.7919502 -0.1396087 -0.5944108
-0.7919403 -0.1477988 -0.5924408
-0.7919262 -0.1559848 -0.5903572
-0.7919074 -0.1641665 -0.5881599
-0.7918832 -0.1723436 -0.5858487
-0.791853 -0.1805158 -0.5834234
-0.7918161 -0.1886827 -0.5808839
-0.7917718 -0.196844 -0.57823
-0.7917193 -0.2049994 -0.5754614
-0.7916579 -0.2131485 -0.572578
-0.7915867 -0.221291 -0.5695795
-0.7915049 -0.2294263 -0.5664658
-0.7914117 -0.2375542 -0.5632367
-0.791306 -0.2456742 -0.5598919
-0.7911871 -0.2537859 -0.5564312
-0.791054 -0.2618888 -0.5528543
-0.7909055 -0.2699824 -0.5491611
-0.7907409 -0.2780663 -0.5453513
-0.7905589 -0.28614 -0.5414246
-0.7903585 -0.2942028 -0.5373809
-0.7901386 -0.3022543 -0.5332199
-0.789898 -0.3102938 -0.5289413
-0.7896357 -0.3183208 -0.5245449
-0.7893503 -0.3263347 -0.5200305
-0.7890408 -0.3343348 -0.5153978
-0.7887058 -0.3423204 -0.5106465
-0.7883441 -0.3502909 -0.5057765
-0.7879543 -0.3582455 -0.5007876
-0.7875352 -0.3661835 -0.4956794
-0.7870853 -0.374104 -0.4904517
-0.7866033 -0.3820064 -0.4851044
-0.7860879 -0.3898897 -0.4796372
-0.7855375 -0.3977532 -0.4740499
-0.7849507 -0.4055958 -0.4683422
-0.784326 -0.4134168 -0.4625141
-0.7836619 -0.421215 -0.4565653