# vtk DataFile Version 2.0
Written badly by Kevin Korner
ASCII
DATASET POLYDATA
POINTS 350 FLOAT
0 0 0
0.00286533 0 0
0.005730504 2.373194e-05 1.79888e-05
0.008595215 7.134481e-05 5.375296e-05
0.01145915 0.0001429811 0.0001070758
0.01432201 0.0002387771 0.0001777376
0.01718347 0.0003588622 0.0002655154
0.02004324 0.00050336 0.0003701836
0.02290101 0.0006723872 0.0004915138
0.02575646 0.0008660544 0.0006292748
0.02860931 0.001084466 0.0007832331
0.03145923 0.001327719 0.0009531527
0.03430593 0.001595907 0.001138795
0.03714912 0.001889113 0.00133992
0.03998848 0.002207417 0.001556285
0.04282373 0.002550893 0.001787646
0.04565455 0.002919606 0.002033756
0.04848067 0.003313619 0.002294367
0.05130179 0.003732984 0.00256923
0.05411761 0.004177753 0.002858093
0.05692785 0.004647966 0.003160705
0.05973222 0.005143662 0.003476812
0.06253043 0.005664871 0.003806159
0.0653222 0.006211619 0.004148489
0.06810725 0.006783926 0.004503547
0.0708853 0.007381805 0.004871075
0.07365608 0.008005267 0.005250814
0.07641931 0.008654313 0.005642504
0.07917472 0.009328941 0.006045888
0.08192204 0.01002914 0.006460704
0.084661 0.01075491 0.006886693
0.08739134 0.01150622 0.007323593
0.0901128 0.01228305 0.007771144
0.09282512 0.01308538 0.008229086
0.09552804 0.01391316 0.008697156
0.09822132 0.01476637 0.009175096
0.1009047 0.01564495 0.009662643
0.1035779 0.01654887 0.01015954
0.1062407 0.01747807 0.01066552
0.1088929 0.01843249 0.01118033
0.1115343 0.01941208 0.01170371
0.1141645 0.02041676 0.0122354
0.1167834 0.02144647 0.01277515
0.1193907 0.02250113 0.01332269
0.1219862 0.02358067 0.01387777
0.1245696 0.02468501 0.01444013
0.1271408 0.02581405 0.01500952
0.1296996 0.0269677 0.01558569
0.1322457 0.02814588 0.01616838
0.1347788 0.02934849 0.01675734
0.1372989 0.03057542 0.01735232
0.1398057 0.03182658 0.01795308
0.1422989 0.03310184 0.01855936
0.1447784 0.03440111 0.01917091
0.147244 0.03572426 0.0197875
0.1496955 0.03707118 0.02040887
0.1521327 0.03844174 0.02103479
0.1545554 0.03983583 0.02166502
0.1569634 0.04125331 0.0222993
0.1593566 0.04269406 0.02293742
0.1617347 0.04415794 0.02357913
0.1640976 0.04564481 0.02422419
0.166445 0.04715454 0.02487237
0.168777 0.04868698 0.02552344
0.1710931 0.050242 0.02617718
0.1733934 0.05181944 0.02683335
0.1756776 0.05341915 0.02749173
0.1779456 0.05504099 0.02815208
0.1801972 0.0566848 0.0288142
0.1824322 0.05835042 0.02947786
0.1846505 0.0600377 0.03014285
0.186852 0.06174648 0.03080893
0.1890365 0.06347659 0.03147591
0.1912038 0.06522787 0.03214356
0.1933539 0.06700015 0.03281168
0.1954865 0.06879327 0.03348005
0.1976016 0.07060706 0.03414848
0.1996989 0.07244134 0.03481675
0.2017785 0.07429594 0.03548466
0.2038401 0.07617069 0.03615202
0.2058835 0.0780654 0.03681861
0.2079088 0.07997991 0.03748426
0.2099157 0.08191403 0.03814875
0.2119042 0.08386757 0.0388119
0.2138741 0.08584037 0.03947353
0.2158253 0.08783223 0.04013343
0.2177576 0.08984297 0.04079142
0.2196711 0.0918724 0.04144733
0.2215655 0.09392033 0.04210096
0.2234408 0.09598658 0.04275215
0.2252968 0.09807095 0.0434007
0.2271335 0.1001733 0.04404645
0.2289508 0.1022933 0.04468922
0.2307485 0.1044309 0.04532884
0.2325265 0.1065858 0.04596514
0.2342848 0.1087579 0.04659796
0.2360233 0.110947 0.04722712
0.2377418 0.1131528 0.04785247
0.2394403 0.1153752 0.04847385
0.2411187 0.117614 0.0490911
0.2427769 0.1198689 0.04970406
0.2444149 0.1221398 0.05031257
0.2460325 0.1244265 0.0509165
0.2476296 0.1267287 0.05151568
0.2492062 0.1290463 0.05210996
0.2507622 0.1313791 0.05269921
0.2522976 0.1337268 0.05328329
0.2538122 0.1360892 0.05386204
0.255306 0.1384662 0.05443532
0.2567789 0.1408575 0.05500302
0.2582308 0.143263 0.05556498
0.2596617 0.1456824 0.05612107
0.2610715 0.1481155 0.05667118
0.2624601 0.1505621 0.05721515
0.2638275 0.153022 0.05775288
0.2651737 0.155495 0.05828424
0.2664985 0.1579808 0.0588091
0.2678018 0.1604794 0.05932734
0.2690838 0.1629904 0.05983885
0.2703442 0.1655136 0.06034351
0.271583 0.1680489 0.06084121
0.2728002 0.1705961 0.06133183
0.2739957 0.1731548 0.06181527
0.2751695 0.1757249 0.06229142
0.2763215 0.1783063 0.06276018
0.2774516 0.1808986 0.06322143
0.2785599 0.1835017 0.06367509
0.2796463 0.1861153 0.06412104
0.2807107 0.1887393 0.0645592
0.2817531 0.1913733 0.06498947
0.2827734 0.1940173 0.06541175
0.2837716 0.196671 0.06582596
0.2847477 0.1993342 0.06623201
0.2857016 0.2020067 0.06662981
0.2866333 0.2046881 0.06701927
0.2875427 0.2073785 0.06740032
0.2884299 0.2100774 0.06777287
0.2892947 0.2127848 0.06813684
0.2901372 0.2155003 0.06849216
0.2909572 0.2182238 0.06883876
0.2917549 0.220955 0.06917656
0.2925301 0.2236938 0.06950548
0.2932828 0.22644 0.06982548
0.294013 0.2291932 0.07013646
0.2947206 0.2319533 0.07043839
0.2954057 0.23472 0.07073118
0.2960682 0.2374933 0.07101478
0.2967081 0.2402727 0.07128913
0.2973253 0.2430582 0.07155419
0.2979199 0.2458495 0.07180988
0.2984918 0.2486464 0.07205616
0.2990409 0.2514486 0.07229299
0.2995674 0.2542559 0.0725203
0.300071 0.2570682 0.07273807
0.300552 0.2598852 0.07294623
0.3010101 0.2627067 0.07314476
0.3014454 0.2655325 0.0733336
0.3018579 0.2683623 0.07351273
0.3022476 0.271196 0.0736821
0.3026144 0.2740332 0.07384169
0.3029584 0.2768739 0.07399146
0.3032795 0.2797177 0.07413137
0.3035777 0.2825645 0.07426142
0.303853 0.2854141 0.07438155
0.3041054 0.2882661 0.07449176
0.3043348 0.2911205 0.07459202
0.3045414 0.293977 0.07468231
0.304725 0.2968353 0.07476262
0.3048857 0.2996952 0.07483292
0.3050234 0.3025566 0.0748932
0.3051382 0.3054192 0.07494346
0.3052301 0.3082828 0.07498367
0.3052989 0.3111471 0.07501384
0.3053449 0.314012 0.07503396
0.3053678 0.3168772 0.07504402
0.3053678 0.3197426 0.07504402
0.3053449 0.3226078 0.07503396
0.3052989 0.3254727 0.07501384
0.3052301 0.328337 0.07498367
0.3051382 0.3312006 0.07494346
0.3050234 0.3340632 0.0748932
0.3048857 0.3369245 0.07483292
0.304725 0.3397845 0.07476262
0.3045414 0.3426428 0.07468231
0.3043348 0.3454993 0.07459202
0.3041054 0.3483536 0.07449176
0.303853 0.3512057 0.07438155
0.3035777 0.3540552 0.07426142
0.3032795 0.356902 0.07413137
0.3029584 0.3597459 0.07399146
0.3026144 0.3625865 0.07384169
0.3022476 0.3654238 0.0736821
0.3018579 0.3682575 0.07351273
0.3014454 0.3710873 0.0733336
0.3010101 0.373913 0.07314476
0.300552 0.3767345 0.07294623
0.300071 0.3795515 0.07273807
0.2995674 0.3823638 0.0725203
0.2990409 0.3851712 0.07229299
0.2984918 0.3879734 0.07205616
0.2979199 0.3907703 0.07180988
0.2973253 0.3935616 0.07155419
0.2967081 0.396347 0.07128913
0.2960682 0.3991265 0.07101478
0.2954057 0.4018997 0.07073118
0.2947206 0.4046665 0.07043839
0.294013 0.4074266 0.07013646
0.2932828 0.4101798 0.06982548
0.2925301 0.4129259 0.06950548
0.2917549 0.4156647 0.06917656
0.2909572 0.418396 0.06883876
0.2901372 0.4211195 0.06849216
0.2892947 0.423835 0.06813684
0.2884299 0.4265424 0.06777287
0.2875427 0.4292413 0.06740032
0.2866333 0.4319316 0.06701927
0.2857016 0.4346131 0.06662981
0.2847477 0.4372856 0.06623201
0.2837716 0.4399487 0.06582596
0.2827734 0.4426024 0.06541175
0.2817531 0.4452464 0.06498947
0.2807107 0.4478805 0.0645592
0.2796463 0.4505045 0.06412104
0.2785599 0.4531181 0.06367509
0.2774516 0.4557212 0.06322143
0.2763215 0.4583135 0.06276018
0.2751695 0.4608948 0.06229142
0.2739957 0.463465 0.06181527
0.2728002 0.4660237 0.06133183
0.271583 0.4685708 0.06084121
0.2703442 0.4711061 0.06034351
0.2690838 0.4736294 0.05983885
0.2678018 0.4761404 0.05932734
0.2664985 0.4786389 0.0588091
0.2651737 0.4811248 0.05828424
0.2638275 0.4835978 0.05775288
0.2624601 0.4860577 0.05721515
0.2610715 0.4885043 0.05667118
0.2596617 0.4909374 0.05612107
0.2582308 0.4933568 0.05556498
0.2567789 0.4957623 0.05500302
0.255306 0.4981536 0.05443532
0.2538122 0.5005306 0.05386204
0.2522976 0.502893 0.05328329
0.2507622 0.5052407 0.05269921
0.2492062 0.5075735 0.05210996
0.2476296 0.509891 0.05151568
0.2460325 0.5121933 0.0509165
0.2444149 0.5144799 0.05031257
0.2427769 0.5167508 0.04970406
0.2411187 0.5190058 0.0490911
0.2394403 0.5212445 0.04847385
0.2377418 0.5234669 0.04785247
0.2360233 0.5256728 0.04722712
0.2342848 0.5278618 0.04659796
0.2325265 0.5300339 0.04596514
0.2307485 0.5321889 0.04532884
0.2289508 0.5343265 0.04468922
0.2271335 0.5364465 0.04404645
0.2252968 0.5385488 0.0434007
0.2234408 0.5406332 0.04275215
0.2215655 0.5426994 0.04210096
0.2196711 0.5447474 0.04144733
0.2177576 0.5467768 0.04079142
0.2158253 0.5487875 0.04013343
0.2138741 0.5507794 0.03947353
0.2119042 0.5527522 0.0388119
0.2099157 0.5547057 0.03814875
0.2079088 0.5566399 0.03748426
0.2058835 0.5585544 0.03681861
0.2038401 0.5604491 0.03615202
0.2017785 0.5623238 0.03548466
0.1996989 0.5641784 0.03481675
0.1976016 0.5660127 0.03414848
0.1954865 0.5678265 0.03348005
0.1933539 0.5696196 0.03281168
0.1912038 0.5713919 0.03214356
0.1890365 0.5731432 0.03147591
0.186852 0.5748733 0.03080893
0.1846505 0.5765821 0.03014285
0.1824322 0.5782694 0.02947786
0.1801972 0.579935 0.0288142
0.1779456 0.5815788 0.02815208
0.1756776 0.5832006 0.02749173
0.1733934 0.5848003 0.02683335
0.1710931 0.5863778 0.02617718
0.168777 0.5879328 0.02552344
0.166445 0.5894652 0.02487237
0.1640976 0.590975 0.02422419
0.1617347 0.5924618 0.02357913
0.1593566 0.5939257 0.02293742
0.1569634 0.5953665 0.0222993
0.1545554 0.5967839 0.02166502
0.1521327 0.598178 0.02103479
0.1496955 0.5995486 0.02040887
0.147244 0.6008955 0.0197875
0.1447784 0.6022187 0.01917091
0.1422989 0.6035179 0.01855936
0.1398057 0.6047932 0.01795308
0.1372989 0.6060443 0.01735232
0.1347788 0.6072713 0.01675734
0.1322457 0.6084739 0.01616838
0.1296996 0.6096521 0.01558569
0.1271408 0.6108057 0.01500952
0.1245696 0.6119348 0.01444013
0.1219862 0.6130391 0.01387777
0.1193907 0.6141186 0.01332269
0.1167834 0.6151733 0.01277515
0.1141645 0.616203 0.0122354
0.1115343 0.6172077 0.01170371
0.1088929 0.6181873 0.01118033
0.1062407 0.6191417 0.01066552
0.1035779 0.6200709 0.01015954
0.1009047 0.6209748 0.009662643
0.09822132 0.6218534 0.009175096
0.09552804 0.6227066 0.008697156
0.09282512 0.6235344 0.008229086
0.0901128 0.6243367 0.007771144
0.08739134 0.6251136 0.007323593
0.084661 0.6258649 0.006886693
0.08192204 0.6265906 0.006460704
0.07917472 0.6272908 0.006045888
0.07641931 0.6279655 0.005642504
0.07365608 0.6286145 0.005250814
0.0708853 0.629238 0.004871075
0.06810725 0.6298358 0.004503547
0.0653222 0.6304082 0.004148489
0.06253043 0.6309549 0.003806159
0.05973222 0.6314761 0.003476812
0.05692785 0.6319718 0.003160705
0.05411761 0.632442 0.002858093
0.05130179 0.6328868 0.00256923
0.04848067 0.6333062 0.002294367
0.04565455 0.6337002 0.002033756
0.04282373 0.6340689 0.001787646
0.03998848 0.6344124 0.001556285
0.03714912 0.6347307 0.00133992
0.03430593 0.6350239 0.001138795
0.03145923 0.6352921 0.0009531527
0.02860931 0.6355353 0.0007832331
0.02575646 0.6357537 0.0006292748
0.02290101 0.6359474 0.0004915138
0.02004324 0.6361164 0.0003701836
0.01718347 0.6362609 0.0002655154
0.01432201 0.636381 0.0001777376
0.01145915 0.6364768 0.0001070758
0.008595215 0.6365484 5.375296e-05
0.005730504 0.636596 1.79888e-05
0.00286533 0.6366198 0
0 0.6366198 0

LINES 349 1047
2 0 1
2 1 2
2 2 3
2 3 4
2 4 5
2 5 6
2 6 7
2 7 8
2 8 9
2 9 10
2 10 11
2 11 12
2 12 13
2 13 14
2 14 15
2 15 16
2 16 17
2 17 18
2 18 19
2 19 20
2 20 21
2 21 22
2 22 23
2 23 24
2 24 25
2 25 26
2 26 27
2 27 28
2 28 29
2 29 30
2 30 31
2 31 32
2 32 33
2 33 34
2 34 35
2 35 36
2 36 37
2 37 38
2 38 39
2 39 40
2 40 41
2 41 42
2 42 43
2 43 44
2 44 45
2 45 46
2 46 47
2 47 48
2 48 49
2 49 50
2 50 51
2 51 52
2 52 53
2 53 54
2 54 55
2 55 56
2 56 57
2 57 58
2 58 59
2 59 60
2 60 61
2 61 62
2 62 63
2 63 64
2 64 65
2 65 66
2 66 67
2 67 68
2 68 69
2 69 70
2 70 71
2 71 72
2 72 73
2 73 74
2 74 75
2 75 76
2 76 77
2 77 78
2 78 79
2 79 80
2 80 81
2 81 82
2 82 83
2 83 84
2 84 85
2 85 86
2 86 87
2 87 88
2 88 89
2 89 90
2 90 91
2 91 92
2 92 93
2 93 94
2 94 95
2 95 96
2 96 97
2 97 98
2 98 99
2 99 100
2 100 101
2 101 102
2 102 103
2 103 104
2 104 105
2 105 106
2 106 107
2 107 108
2 108 109
2 109 110
2 110 111
2 111 112
2 112 113
2 113 114
2 114 115
2 115 116
2 116 117
2 117 118
2 118 119
2 119 120
2 120 121
2 121 122
2 122 123
2 123 124
2 124 125
2 125 126
2 126 127
2 127 128
2 128 129
2 129 130
2 130 131
2 131 132
2 132 133
2 133 134
2 134 135
2 135 136
2 136 137
2 137 138
2 138 139
2 139 140
2 140 141
2 141 142
2 142 143
2 143 144
2 144 145
2 145 146
2 146 147
2 147 148
2 148 149
2 149 150
2 150 151
2 151 152
2 152 153
2 153 154
2 154 155
2 155 156
2 156 157
2 157 158
2 158 159
2 159 160
2 160 161
2 161 162
2 162 163
2 163 164
2 164 165
2 165 166
2 166 167
2 167 168
2 168 169
2 169 170
2 170 171
2 171 172
2 172 173
2 173 174
2 174 175
2 175 176
2 176 177
2 177 178
2 178 179
2 179 180
2 180 181
2 181 182
2 182 183
2 183 184
2 184 185
2 185 186
2 186 187
2 187 188
2 188 189
2 189 190
2 190 191
2 191 192
2 192 193
2 193 194
2 194 195
2 195 196
2 196 197
2 197 198
2 198 199
2 199 200
2 200 201
2 201 202
2 202 203
2 203 204
2 204 205
2 205 206
2 206 207
2 207 208
2 208 209
2 209 210
2 210 211
2 211 212
2 212 213
2 213 214
2 214 215
2 215 216
2 216 217
2 217 218
2 218 219
2 219 220
2 220 221
2 221 222
2 222 223
2 223 224
2 224 225
2 225 226
2 226 227
2 227 228
2 228 229
2 229 230
2 230 231
2 231 232
2 232 233
2 233 234
2 234 235
2 235 236
2 236 237
2 237 238
2 238 239
2 239 240
2 240 241
2 241 242
2 242 243
2 243 244
2 244 245
2 245 246
2 246 247
2 247 248
2 248 249
2 249 250
2 250 251
2 251 252
2 252 253
2 253 254
2 254 255
2 255 256
2 256 257
2 257 258
2 258 259
2 259 260
2 260 261
2 261 262
2 262 263
2 263 264
2 264 265
2 265 266
2 266 267
2 267 268
2 268 269
2 269 270
2 270 271
2 271 272
2 272 273
2 273 274
2 274 275
2 275 276
2 276 277
2 277 278
2 278 279
2 279 280
2 280 281
2 281 282
2 282 283
2 283 284
2 284 285
2 285 286
2 286 287
2 287 288
2 288 289
2 289 290
2 290 291
2 291 292
2 292 293
2 293 294
2 294 295
2 295 296
2 296 297
2 297 298
2 298 299
2 299 300
2 300 301
2 301 302
2 302 303
2 303 304
2 304 305
2 305 306
2 306 307
2 307 308
2 308 309
2 309 310
2 310 311
2 311 312
2 312 313
2 313 314
2 314 315
2 315 316
2 316 317
2 317 318
2 318 319
2 319 320
2 320 321
2 321 322
2 322 323
2 323 324
2 324 325
2 325 326
2 326 327
2 327 328
2 328 329
2 329 330
2 330 331
2 331 332
2 332 333
2 333 334
2 334 335
2 335 336
2 336 337
2 337 338
2 338 339
2 339 340
2 340 341
2 341 342
2 342 343
2 343 344
2 344 345
2 345 346
2 346 347
2 347 348
2 348 349


POINT_DATA 350
SCALARS a FLOAT 1
LOOKUP_TABLE default
0.0005894628
0.0005894628
0.0005894628
0.0005894628
0.0005894628
0.0005894628
0.0005894628
0.0005894628
0.0005894628
0.0005894628
0.0005894628
0.0005894628
0.0005894628
0.0005894628
0.0005894628
0.0005894628
0.0005894628
0.0005894628
0.0005894628
0.0005894628
0.0005894628
0.0005894628
0.0005894628
0.0005894628
0.0005894628
0.0005894628
0.0005894628
0.0005894628
0.0005894628
0.0005894628
0.0005894628
0.0005894628
0.0005894628
0.0005894628
0.0005894628
0.0005894628
0.0005894628
0.0005894628
0.0005894628
0.0005894628
0.0005894628
0.0005894628
0.0005894628
0.0005894628
0.0005894628
0.0005894628
0.0005894628
0.0005894628
0.0005894628
0.0005894628
0.0005894628
0.0005894628
0.0005894628
0.0005894628
0.0005894628
0.0005894628
0.0005894628
0.0005894628
0.0005894628
0.0005894628
0.0005894628
0.0005894628
0.0005894628
0.0005894628
0.0005894628
0.0005894628
0.0005894628
0.0005894628
0.0005894628
0.0005894628
0.0005894628
0.0005894628
0.0005894628
0.0005894628
0.0005894628
0.0005894628
0.0005894628
0.0005894628
0.0005894628
0.0005894628
0.0005894628
0.0005894628
0.0005894628
0.0005894628
0.0005894628
0.0005894628
0.0005894628
0.0005894628
0.0005894628
0.0005894628
0.0005894628
0.0005894628
0.0005894628
0.0005894628
0.0005894628
0.0005894628
0.0005894628
0.0005894628
0.0005894628
0.0005894628
0.0005894628
0.0005894628
0.0005894628
0.0005894628
0.0005894628
0.0005894628
0.0005894628
0.0005894628
0.0005894628
0.0005894628
0.0005894628
0.0005894628
0.0005894628
0.0005894628
0.0005894628
0.0005894628
0.0005894628
0.0005894628
0.0005894628
0.0005894628
0.0005894628
0.0005894628
0.0005894628
0.0005894628
0.0005894628
0.0005894628
0.0005894628
0.0005894628
0.0005894628
0.0005894628
0.0005894628
0.0005894628
0.0005894628
0.0005894628
0.0005894628
0.0005894628
0.0005894628
0.0005894628
0.0005894628
0.0005894628
0.0005894628
0.0005894628
0.0005894628
0.0005894628
0.0005894628
0.0005894628
0.0005894628
0.0005894628
0.0005894628
0.0005894628
0.0005894628
0.0005894628
0.0005894628
0.0005894628
0.0005894628
0.0005894628
0.0005894628
0.0005894628
0.0005894628
0.0005894628
0.0005894628
0.0005894628
0.0005894628
0.0005894628
0.0005894628
0.0005894628
0.0005894628
0.0005894628
0.0005894628
0.0005894628
0.0005894628
0.0005894628
0.0005894628
0.0005894628
0.0005894628
0.0005894628
0.0005894628
0.0005894628
0.0005894628
0.0005894628
0.0005894628
0.0005894628
0.0005894628
0.0005894628
0.0005894628
0.0005894628
0.0005894628
0.0005894628
0.0005894628
0.0005894628
0.0005894628
0.0005894628
0.0005894628
0.0005894628
0.0005894628
0.0005894628
0.0005894628
0.0005894628
0.0005894628
0.0005894628
0.0005894628
0.0005894628
0.0005894628
0.0005894628
0.0005894628
0.0005894628
0.0005894628
0.0005894628
0.0005894628
0.0005894628
0.0005894628
0.0005894628
0.0005894628
0.0005894628
0.0005894628
0.0005894628
0.0005894628
0.0005894628
0.0005894628
0.0005894628
0.0005894628
0.0005894628
0.0005894628
0.0005894628
0.0005894628
0.0005894628
0.0005894628
0.0005894628
0.0005894628
0.0005894628
0.0005894628
0.0005894628
0.0005894628
0.0005894628
0.0005894628
0.0005894628
0.0005894628
0.0005894628
0.0005894628
0.0005894628
0.0005894628
0.0005894628
0.0005894628
0.0005894628
0.0005894628
0.0005894628
0.0005894628
0.0005894628
0.0005894628
0.0005894628
0.0005894628
0.0005894628
0.0005894628
0.0005894628
0.0005894628
0.0005894628
0.0005894628
0.0005894628
0.0005894628
0.0005894628
0.0005894628
0.0005894628
0.0005894628
0.0005894628
0.0005894628
0.0005894628
0.0005894628
0.0005894628
0.0005894628
0.0005894628
0.0005894628
0.0005894628
0.0005894628
0.0005894628
0.0005894628
0.0005894628
0.0005894628
0.0005894628
0.0005894628
0.0005894628
0.0005894628
0.0005894628
0.0005894628
0.0005894628
0.0005894628
0.0005894628
0.0005894628
0.0005894628
0.0005894628
0.0005894628
0.0005894628
0.0005894628
0.0005894628
0.0005894628
0.0005894628
0.0005894628
0.0005894628
0.0005894628
0.0005894628
0.0005894628
0.0005894628
0.0005894628
0.0005894628
0.0005894628
0.0005894628
0.0005894628
0.0005894628
0.0005894628
0.0005894628
0.0005894628
0.0005894628
0.0005894628
0.0005894628
0.0005894628
0.0005894628
0.0005894628
0.0005894628
0.0005894628
0.0005894628
0.0005894628
0.0005894628
0.0005894628
0.0005894628
0.0005894628
0.0005894628
0.0005894628
0.0005894628
0.0005894628
0.0005894628
0.0005894628
0.0005894628
0.0005894628
0.0005894628
0.0005894628
0.0005894628
0.0005894628
0.0005894628
0.0005894628
0.0005894628
0.0005894628
0.0005894628
0.0005894628
0.0005894628
0.0005894628
0.0005894628
0.0005894628
0.0005894628
0.0005894628
0.0005894628
0.0005894628


SCALARS b FLOAT 1
LOOKUP_TABLE default
0.02357851
0.02357851
0.02357851
0.02357851
0.02357851
0.02357851
0.02357851
0.02357851
0.02357851
0.02357851
0.02357851
0.02357851
0.02357851
0.02357851
0.02357851
0.02357851
0.02357851
0.02357851
0.02357851
0.02357851
0.02357851
0.02357851
0.02357851
0.02357851
0.02357851
0.02357851
0.02357851
0.02357851
0.02357851
0.02357851
0.02357851
0.02357851
0.02357851
0.02357851
0.02357851
0.02357851
0.02357851
0.02357851
0.02357851
0.02357851
0.02357851
0.02357851
0.02357851
0.02357851
0.02357851
0.02357851
0.02357851
0.02357851
0.02357851
0.02357851
0.02357851
0.02357851
0.02357851
0.02357851
0.02357851
0.02357851
0.02357851
0.02357851
0.02357851
0.02357851
0.02357851
0.02357851
0.02357851
0.02357851
0.02357851
0.02357851
0.02357851
0.02357851
0.02357851
0.02357851
0.02357851
0.02357851
0.02357851
0.02357851
0.02357851
0.02357851
0.02357851
0.02357851
0.02357851
0.02357851
0.02357851
0.02357851
0.02357851
0.02357851
0.02357851
0.02357851
0.02357851
0.02357851
0.02357851
0.02357851
0.02357851
0.02357851
0.02357851
0.02357851
0.02357851
0.02357851
0.02357851
0.02357851
0.02357851
0.02357851
0.02357851
0.02357851
0.02357851
0.02357851
0.02357851
0.02357851
0.02357851
0.02357851
0.02357851
0.02357851
0.02357851
0.02357851
0.02357851
0.02357851
0.02357851
0.02357851
0.02357851
0.02357851
0.02357851
0.02357851
0.02357851
0.02357851
0.02357851
0.02357851
0.02357851
0.02357851
0.02357851
0.02357851
0.02357851
0.02357851
0.02357851
0.02357851
0.02357851
0.02357851
0.02357851
0.02357851
0.02357851
0.02357851
0.02357851
0.02357851
0.02357851
0.02357851
0.02357851
0.02357851
0.02357851
0.02357851
0.02357851
0.02357851
0.02357851
0.02357851
0.02357851
0.02357851
0.02357851
0.02357851
0.02357851
0.02357851
0.02357851
0.02357851
0.02357851
0.02357851
0.02357851
0.02357851
0.02357851
0.02357851
0.02357851
0.02357851
0.02357851
0.02357851
0.02357851
0.02357851
0.02357851
0.02357851
0.02357851
0.02357851
0.02357851
0.02357851
0.02357851
0.02357851
0.02357851
0.02357851
0.02357851
0.02357851
0.02357851
0.02357851
0.02357851
0.02357851
0.02357851
0.02357851
0.02357851
0.02357851
0.02357851
0.02357851
0.02357851
0.02357851
0.02357851
0.02357851
0.02357851
0.02357851
0.02357851
0.02357851
0.02357851
0.02357851
0.02357851
0.02357851
0.02357851
0.02357851
0.02357851
0.02357851
0.02357851
0.02357851
0.02357851
0.02357851
0.02357851
0.02357851
0.02357851
0.02357851
0.02357851
0.02357851
0.02357851
0.02357851
0.02357851
0.02357851
0.02357851
0.02357851
0.02357851
0.02357851
0.02357851
0.02357851
0.02357851
0.02357851
0.02357851
0.02357851
0.02357851
0.02357851
0.02357851
0.02357851
0.02357851
0.02357851
0.02357851
0.02357851
0.02357851
0.02357851
0.02357851
0.02357851
0.02357851
0.02357851
0.02357851
0.02357851
0.02357851
0.02357851
0.02357851
0.02357851
0.02357851
0.02357851
0.02357851
0.02357851
0.02357851
0.02357851
0.02357851
0.02357851
0.02357851
0.02357851
0.02357851
0.02357851
0.02357851
0.02357851
0.02357851
0.02357851
0.02357851
0.02357851
0.02357851
0.02357851
0.02357851
0.02357851
0.02357851
0.02357851
0.02357851
0.02357851
0.02357851
0.02357851
0.02357851
0.02357851
0.02357851
0.02357851
0.02357851
0.02357851
0.02357851
0.02357851
0.02357851
0.02357851
0.02357851
0.02357851
0.02357851
0.02357851
0.02357851
0.02357851
0.02357851
0.02357851
0.02357851
0.02357851
0.02357851
0.02357851
0.02357851
0.02357851
0.02357851
0.02357851
0.02357851
0.02357851
0.02357851
0.02357851
0.02357851
0.02357851
0.02357851
0.02357851
0.02357851
0.02357851
0.02357851
0.02357851
0.02357851
0.02357851
0.02357851
0.02357851
0.02357851
0.02357851
0.02357851
0.02357851
0.02357851
0.02357851
0.02357851
0.02357851
0.02357851
0.02357851
0.02357851
0.02357851
0.02357851
0.02357851
0.02357851
0.02357851
0.02357851
0.02357851
0.02357851
0.02357851
0.02357851
0.02357851
0.02357851
0.02357851
0.02357851
0.02357851
0.02357851
0.02357851


VECTORS d1 FLOAT
0 0.7939904 0.6079303
-0.01039287 0.7992382 0.6009245
-0.02078183 0.8043162 0.5938381
-0.03116441 0.809224 0.5866731
-0.04153819 0.8139615 0.5794318
-0.05190077 0.8185287 0.5721163
-0.0622498 0.8229257 0.5647285
-0.07258295 0.8271523 0.5572708
-0.08289793 0.8312088 0.5497452
-0.0931925 0.8350954 0.5421539
-0.1034644 0.8388121 0.5344991
-0.1137116 0.8423594 0.526783
-0.1239318 0.8457375 0.5190076
-0.134123 0.8489469 0.5111753
-0.1442832 0.8519879 0.5032882
-0.1544102 0.8548611 0.4953484
-0.1645022 0.8575669 0.4873582
-0.1745573 0.860106 0.4793197
-0.1845735 0.862479 0.4712352
-0.194549 0.8646866 0.4631067
-0.204482 0.8667294 0.4549365
-0.2143707 0.8686083 0.4467267
-0.2242135 0.8703241 0.4384795
-0.2340087 0.8718775 0.430197
-0.2437546 0.8732696 0.4218814
-0.2534497 0.8745011 0.4135348
-0.2630924 0.8755732 0.4051592
-0.2726813 0.8764867 0.3967569
-0.2822149 0.8772426 0.3883299
-0.2916918 0.8778422 0.3798803
-0.3011106 0.8782864 0.3714101
-0.31047 0.8785764 0.3629214
-0.3197688 0.8787133 0.3544162
-0.3290057 0.8786983 0.3458967
-0.3381795 0.8785327 0.3373646
-0.3472891 0.8782177 0.3288221
-0.3563334 0.8777545 0.3202711
-0.3653113 0.8771444 0.3117135
-0.3742218 0.8763888 0.3031513
-0.383064 0.8754889 0.2945864
-0.3918368 0.8744462 0.2860206
-0.4005395 0.8732619 0.2774558
-0.4091711 0.8719375 0.268894
-0.4177308 0.8704744 0.2603368
-0.4262179 0.868874 0.2517861
-0.4346317 0.8671377 0.2432436
-0.4429714 0.865267 0.2347112
-0.4512363 0.8632633 0.2261905
-0.459426 0.8611282 0.2176833
-0.4675397 0.858863 0.2091912
-0.4755769 0.8564693 0.200716
-0.4835371 0.8539486 0.1922591
-0.4914199 0.8513024 0.1838223
-0.4992248 0.8485322 0.1754072
-0.5069513 0.8456396 0.1670152
-0.5145992 0.842626 0.158648
-0.522168 0.8394929 0.150307
-0.5296575 0.836242 0.1419938
-0.5370674 0.8328747 0.1337098
-0.5443975 0.8293926 0.1254564
-0.5516475 0.8257972 0.1172351
-0.5588172 0.8220901 0.1090472
-0.5659064 0.8182727 0.1008942
-0.5729152 0.8143467 0.09277735
-0.5798433 0.8103135 0.08469797
-0.5866906 0.8061748 0.07665736
-0.5934572 0.8019319 0.06865679
-0.600143 0.7975865 0.06069751
-0.606748 0.79314 0.05278073
-0.6132722 0.788594 0.04490766
-0.6197157 0.78395 0.03707947
-0.6260785 0.7792094 0.0292973
-0.6323608 0.7743739 0.02156228
-0.6385627 0.7694447 0.01387552
-0.6446842 0.7644235 0.006238089
-0.6507256 0.7593117 -0.001348951
-0.6566871 0.7541108 -0.008884567
-0.6625688 0.7488222 -0.01636775
-0.6683709 0.7434474 -0.02379751
-0.6740937 0.7379878 -0.03117287
-0.6797374 0.7324448 -0.0384929
-0.6853023 0.7268198 -0.04575666
-0.6907887 0.7211143 -0.05296327
-0.6961969 0.7153296 -0.06011182
-0.7015272 0.7094671 -0.06720147
-0.7067798 0.7035282 -0.07423136
-0.7119552 0.6975143 -0.08120069
-0.7170537 0.6914267 -0.08810865
-0.7220757 0.6852666 -0.09495445
-0.7270215 0.6790355 -0.1017373
-0.7318915 0.6727347 -0.1084566
-0.7366861 0.6663654 -0.1151114
-0.7414058 0.659929 -0.1217012
-0.7460509 0.6534266 -0.1282251
-0.7506219 0.6468596 -0.1346826
-0.7551191 0.6402292 -0.1410731
-0.7595431 0.6335367 -0.1473957
-0.7638943 0.6267832 -0.1536501
-0.7681731 0.6199699 -0.1598354
-0.77238 0.6130981 -0.1659512
-0.7765155 0.6061689 -0.1719969
-0.78058 0.5991835 -0.177972
-0.784574 0.592143 -0.1838758
-0.788498 0.5850485 -0.1897078
-0.7923525 0.5779013 -0.1954677
-0.7961379 0.5707023 -0.2011547
-0.7998548 0.5634528 -0.2067686
-0.8035036 0.5561537 -0.2123088
-0.8070849 0.5488061 -0.2177748
-0.810599 0.5414111 -0.2231662
-0.8140466 0.5339698 -0.2284827
-0.8174282 0.5264831 -0.2337236
-0.8207441 0.5189521 -0.2388888
-0.8239949 0.5113778 -0.2439778
-0.8271812 0.5037611 -0.2489901
-0.8303033 0.496103 -0.2539255
-0.8333619 0.4884046 -0.2587836
-0.8363573 0.4806666 -0.263564
-0.8392902 0.4728902 -0.2682664
-0.8421609 0.4650762 -0.2728905
-0.8449699 0.4572255 -0.2774359
-0.8477178 0.449339 -0.2819025
-0.850405 0.4414176 -0.2862898
-0.853032 0.4334621 -0.2905975
-0.8555993 0.4254735 -0.2948255
-0.8581073 0.4174526 -0.2989735
-0.8605565 0.4094003 -0.3030412
-0.8629473 0.4013173 -0.3070283
-0.8652803 0.3932045 -0.3109346
-0.8675558 0.3850626 -0.3147599
-0.8697742 0.3768926 -0.318504
-0.8719362 0.3686951 -0.3221666
-0.8740419 0.3604709 -0.3257475
-0.876092 0.3522209 -0.3292466
-0.8780867 0.3439457 -0.3326637
-0.8800265 0.3356461 -0.3359985
-0.8819119 0.3273229 -0.3392509
-0.8837431 0.3189767 -0.3424207
-0.8855207 0.3106084 -0.3455078
-0.8872449 0.3022185 -0.3485119
-0.8889161 0.2938078 -0.351433
-0.8905347 0.285377 -0.3542709
-0.8921011 0.2769268 -0.3570255
-0.8936156 0.2684578 -0.3596966
-0.8950785 0.2599707 -0.362284
-0.8964902 0.2514662 -0.3647878
-0.8978509 0.2429449 -0.3672077
-0.8991611 0.2344075 -0.3695436
-0.9004209 0.2258546 -0.3717955
-0.9016307 0.2172868 -0.3739632
-0.9027908 0.2087048 -0.3760467
-0.9039014 0.2001092 -0.3780457
-0.9049628 0.1915006 -0.3799604
-0.9059752 0.1828795 -0.3817905
-0.906939 0.1742467 -0.383536
-0.9078542 0.1656026 -0.3851968
-0.9087212 0.156948 -0.3867728
-0.9095401 0.1482833 -0.388264
-0.9103111 0.1396092 -0.3896704
-0.9110345 0.1309262 -0.3909917
-0.9117103 0.1222349 -0.3922281
-0.9123389 0.1135359 -0.3933795
-0.9129202 0.1048297 -0.3944457
-0.9134545 0.09611696 -0.3954268
-0.9139419 0.08739817 -0.3963227
-0.9143826 0.0786739 -0.3971334
-0.9147765 0.06994471 -0.3978589
-0.9151239 0.06121116 -0.398499
-0.9154248 0.05247378 -0.3990539
-0.9156792 0.04373314 -0.3995234
-0.9158873 0.03498978 -0.3999076
-0.9160491 0.02624423 -0.4002065
-0.9161647 0.01749706 -0.4004199
-0.916234 0.008748803 -0.400548
-0.9162571 -1.003919e-13 -0.4005907
-0.916234 -0.008748803 -0.400548
-0.9161647 -0.01749706 -0.4004199
-0.9160491 -0.02624423 -0.4002065
-0.9158873 -0.03498978 -0.3999076
-0.9156792 -0.04373314 -0.3995234
-0.9154248 -0.05247378 -0.3990539
-0.9151239 -0.06121116 -0.398499
-0.9147765 -0.06994471 -0.3978589
-0.9143826 -0.0786739 -0.3971334
-0.9139419 -0.08739817 -0.3963227
-0.9134545 -0.09611696 -0.3954268
-0.9129202 -0.1048297 -0.3944457
-0.9123389 -0.1135359 -0.3933795
-0.9117103 -0.1222349 -0.3922281
-0.9110345 -0.1309262 -0.3909917
-0.9103111 -0.1396092 -0.3896704
-0.9095401 -0.1482833 -0.388264
-0.9087212 -0.156948 -0.3867728
-0.9078542 -0.1656026 -0.3851968
-0.906939 -0.1742467 -0.383536
-0.9059752 -0.1828795 -0.3817905
-0.9049628 -0.1915006 -0.3799604
-0.9039014 -0.2001092 -0.3780457
-0.9027908 -0.2087048 -0.3760467
-0.9016307 -0.2172868 -0.3739632
-0.9004209 -0.2258546 -0.3717955
-0.8991611 -0.2344075 -0.3695436
-0.8978509 -0.2429449 -0.3672077
-0.8964902 -0.2514662 -0.3647878
-0.8950785 -0.2599707 -0.362284
-0.8936156 -0.2684578 -0.3596966
-0.8921011 -0.2769268 -0.3570255
-0.8905347 -0.285377 -0.3542709
-0.8889161 -0.2938078 -0.351433
-0.8872449 -0.3022185 -0.3485119
-0.8855207 -0.3106084 -0.3455078
-0.8837431 -0.3189767 -0.3424207
-0.8819119 -0.3273229 -0.3392509
-0.8800265 -0.3356461 -0.3359985
-0.8780867 -0.3439457 -0.3326637
-0.876092 -0.3522209 -0.3292466
-0.8740419 -0.3604709 -0.3257475
-0.8719362 -0.3686951 -0.3221666
-0.8697742 -0.3768926 -0.318504
-0.8675558 -0.3850626 -0.3147599
-0.8652803 -0.3932045 -0.3109346
-0.8629473 -0.4013173 -0.3070283
-0.8605565 -0.4094003 -0.3030412
-0.8581073 -0.4174526 -0.2989735