# vtk DataFile Version 2.0
Written badly by Kevin Korner
ASCII
DATASET POLYDATA
POINTS 350 FLOAT
0 0 0
0.00286533 0 0
0.005730544 5.877281e-06 2.4959e-05
0.008595391 1.842373e-05 7.605271e-05
0.01145958 3.845727e-05 0.000154363
0.01432279 6.681807e-05 0.0002608807
0.01718466 0.0001043651 0.0003965084
0.02004481 0.0001519725 0.0005620629
0.02290281 0.0002105265 0.0007582774
0.02575822 0.0002809223 0.0009858042
0.02861058 0.0003640608 0.001245216
0.03145936 0.0004608457 0.00153701
0.03430407 0.0005721811 0.001861606
0.03714415 0.0006989683 0.002219353
0.03997904 0.0008421033 0.002610528
0.04280816 0.001002475 0.003035339
0.04563092 0.001180961 0.003493926
0.0484467 0.001378427 0.003986366
0.05125489 0.001595726 0.004512669
0.05405484 0.001833692 0.005072787
0.05684593 0.002093142 0.005666611
0.0596275 0.002374872 0.006293976
0.06239892 0.002679656 0.006954659
0.06515951 0.003008246 0.007648386
0.06790864 0.003361367 0.008374832
0.07064564 0.003739718 0.009133623
0.07336988 0.004143971 0.009924338
0.0760807 0.004574771 0.01074651
0.07877747 0.00503273 0.01159964
0.08145955 0.005518433 0.01248317
0.08412633 0.006032431 0.01339651
0.0867772 0.006575245 0.01433906
0.08941154 0.007147362 0.01531015
0.09202878 0.00774924 0.0163091
0.09462835 0.0083813 0.0173352
0.09720968 0.009043931 0.01838771
0.09977223 0.009737492 0.01946587
0.1023155 0.0104623 0.02056889
0.1048389 0.01121866 0.02169597
0.107342 0.01200681 0.02284629
0.1098244 0.01282699 0.02401901
0.1122856 0.01367939 0.02521328
0.1147251 0.01456416 0.02642824
0.1171425 0.01548145 0.02766302
0.1195375 0.01643135 0.02891675
0.1219097 0.01741392 0.03018853
0.1242587 0.01842922 0.03147749
0.1265842 0.01947725 0.03278273
0.128886 0.020558 0.03410337
0.1311636 0.02167143 0.03543852
0.133417 0.02281747 0.03678729
0.1356457 0.02399602 0.0381488
0.1378497 0.02520698 0.03952217
0.1400287 0.0264502 0.04090655
0.1421825 0.02772553 0.04230106
0.1443111 0.02903277 0.04370486
0.1464141 0.03037173 0.04511709
0.1484916 0.03174219 0.04653695
0.1505434 0.0331439 0.04796359
0.1525695 0.03457662 0.04939622
0.1545698 0.03604007 0.05083405
0.1565442 0.03753396 0.0522763
0.1584927 0.039058 0.0537222
0.1604154 0.04061186 0.055171
0.1623122 0.04219522 0.05662197
0.1641831 0.04380774 0.05807441
0.1660282 0.04544909 0.05952759
0.1678475 0.04711889 0.06098085
0.1696411 0.04881678 0.06243352
0.1714091 0.0505424 0.06388495
0.1731515 0.05229535 0.06533451
0.1748685 0.05407525 0.06678158
0.1765601 0.05588172 0.06822557
0.1782266 0.05771435 0.0696659
0.179868 0.05957274 0.071102
0.1814844 0.06145649 0.07253335
0.183076 0.06336519 0.0739594
0.1846431 0.06529843 0.07537966
0.1861856 0.06725581 0.07679362
0.1877039 0.06923691 0.07820082
0.1891981 0.07124131 0.0796008
0.1906683 0.07326862 0.08099312
0.1921148 0.07531841 0.08237734
0.1935378 0.07739028 0.08375306
0.1949374 0.07948382 0.08511989
0.1963139 0.08159861 0.08647745
0.1976675 0.08373426 0.08782538
0.1989984 0.08589037 0.08916332
0.2003068 0.08806653 0.09049094
0.2015929 0.09026234 0.09180792
0.2028569 0.09247742 0.09311396
0.2040991 0.09471137 0.09440876
0.2053197 0.09696381 0.09569204
0.2065189 0.09923435 0.09696353
0.2076969 0.1015226 0.09822297
0.208854 0.1038282 0.09947013
0.2099904 0.1061509 0.1007048
0.2111062 0.1084901 0.1019266
0.2122018 0.1108456 0.1031356
0.2132773 0.113217 0.1043314
0.214333 0.1156039 0.1055138
0.215369 0.1180061 0.1066827
0.2163857 0.1204231 0.1078379
0.2173832 0.1228546 0.1089792
0.2183617 0.1253004 0.1101066
0.2193215 0.12776 0.1112197
0.2202628 0.1302332 0.1123186
0.2211857 0.1327196 0.113403
0.2220905 0.135219 0.1144729
0.2229774 0.137731 0.1155281
0.2238466 0.1402553 0.1165685
0.2246983 0.1427917 0.117594
0.2255326 0.1453398 0.1186045
0.2263499 0.1478993 0.1196
0.2271502 0.15047 0.1205803
0.2279337 0.1530517 0.1215453
0.2287007 0.1556439 0.1224951
0.2294514 0.1582466 0.1234294
0.2301858 0.1608593 0.1243483
0.2309042 0.1634819 0.1252516
0.2316068 0.1661141 0.1261394
0.2322937 0.1687556 0.1270115
0.2329651 0.1714062 0.127868
0.2336211 0.1740657 0.1287087
0.2342619 0.1767339 0.1295337
0.2348877 0.1794104 0.1303428
0.2354986 0.1820951 0.1311361
0.2360948 0.1847877 0.1319134
0.2366764 0.1874881 0.1326749
0.2372435 0.190196 0.1334204
0.2377963 0.1929112 0.1341499
0.238335 0.1956335 0.1348634
0.2388596 0.1983627 0.1355609
0.2393703 0.2010986 0.1362423
0.2398672 0.2038409 0.1369077
0.2403504 0.2065896 0.1375569
0.2408201 0.2093443 0.1381901
0.2412763 0.212105 0.1388071
0.2417192 0.2148714 0.139408
0.2421489 0.2176433 0.1399927
0.2425655 0.2204206 0.1405613
0.2429691 0.223203 0.1411137
0.2433598 0.2259905 0.1416499
0.2437376 0.2287828 0.1421699
0.2441028 0.2315797 0.1426737
0.2444553 0.2343812 0.1431613
0.2447952 0.237187 0.1436326
0.2451227 0.2399969 0.1440878
0.2454378 0.2428108 0.1445267
0.2457406 0.2456286 0.1449494
0.2460311 0.24845 0.1453559
0.2463095 0.251275 0.1457461
0.2465758 0.2541033 0.1461201
0.2468301 0.2569348 0.1464778
0.2470724 0.2597694 0.1468193
0.2473027 0.2626068 0.1471445
0.2475212 0.2654471 0.1474535
0.2477279 0.2682899 0.1477462
0.2479229 0.2711352 0.1480227
0.2481061 0.2739828 0.1482829
0.2482777 0.2768326 0.1485268
0.2484377 0.2796843 0.1487545
0.248586 0.282538 0.1489659
0.2487229 0.2853934 0.1491611
0.2488482 0.2882504 0.14934
0.248962 0.2911088 0.1495026
0.2490643 0.2939686 0.149649
0.2491553 0.2968295 0.1497791
0.2492348 0.2996915 0.149893
0.2493029 0.3025543 0.1499906
0.2493596 0.305418 0.1500719
0.249405 0.3082822 0.1501369
0.249439 0.3111469 0.1501857
0.2494617 0.314012 0.1502183
0.249473 0.3168772 0.1502345
0.249473 0.3197426 0.1502345
0.2494617 0.3226078 0.1502183
0.249439 0.3254729 0.1501857
0.249405 0.3283376 0.1501369
0.2493596 0.3312018 0.1500719
0.2493029 0.3340654 0.1499906
0.2492348 0.3369283 0.149893
0.2491553 0.3397902 0.1497791
0.2490643 0.3426512 0.149649
0.248962 0.3455109 0.1495026
0.2488482 0.3483694 0.14934
0.2487229 0.3512264 0.1491611
0.248586 0.3540818 0.1489659
0.2484377 0.3569354 0.1487545
0.2482777 0.3597872 0.1485268
0.2481061 0.362637 0.1482829
0.2479229 0.3654846 0.1480227
0.2477279 0.3683299 0.1477462
0.2475212 0.3711727 0.1474535
0.2473027 0.3740129 0.1471445
0.2470724 0.3768504 0.1468193
0.2468301 0.379685 0.1464778
0.2465758 0.3825165 0.1461201
0.2463095 0.3853448 0.1457461
0.2460311 0.3881698 0.1453559
0.2457406 0.3909912 0.1449494
0.2454378 0.393809 0.1445267
0.2451227 0.3966229 0.1440878
0.2447952 0.3994328 0.1436326
0.2444553 0.4022386 0.1431613
0.2441028 0.40504 0.1426737
0.2437376 0.407837 0.1421699
0.2433598 0.4106293 0.1416499
0.2429691 0.4134168 0.1411137
0.2425655 0.4161992 0.1405613
0.2421489 0.4189765 0.1399927
0.2417192 0.4217484 0.139408
0.2412763 0.4245148 0.1388071
0.2408201 0.4272755 0.1381901
0.2403504 0.4300302 0.1375569
0.2398672 0.4327789 0.1369077
0.2393703 0.4355212 0.1362423
0.2388596 0.4382571 0.1355609
0.238335 0.4409863 0.1348634
0.2377963 0.4437086 0.1341499
0.2372435 0.4464238 0.1334204
0.2366764 0.4491317 0.1326749
0.2360948 0.451832 0.1319134
0.2354986 0.4545247 0.1311361
0.2348877 0.4572094 0.1303428
0.2342619 0.4598859 0.1295337
0.2336211 0.462554 0.1287087
0.2329651 0.4652135 0.127868
0.2322937 0.4678642 0.1270115
0.2316068 0.4705057 0.1261394
0.2309042 0.4731379 0.1252516
0.2301858 0.4757605 0.1243483
0.2294514 0.4783732 0.1234294
0.2287007 0.4809758 0.1224951
0.2279337 0.4835681 0.1215453
0.2271502 0.4861497 0.1205803
0.2263499 0.4887205 0.1196
0.2255326 0.49128 0.1186045
0.2246983 0.4938281 0.117594
0.2238466 0.4963645 0.1165685
0.2229774 0.4988888 0.1155281
0.2220905 0.5014008 0.1144729
0.2211857 0.5039001 0.113403
0.2202628 0.5063866 0.1123186
0.2193215 0.5088597 0.1112197
0.2183617 0.5113194 0.1101066
0.2173832 0.5137651 0.1089792
0.2163857 0.5161967 0.1078379
0.215369 0.5186137 0.1066827
0.214333 0.5210159 0.1055138
0.2132773 0.5234028 0.1043314
0.2122018 0.5257742 0.1031356
0.2111062 0.5281297 0.1019266
0.2099904 0.5304689 0.1007048
0.208854 0.5327915 0.09947013
0.2076969 0.5350971 0.09822297
0.2065189 0.5373854 0.09696353
0.2053197 0.539656 0.09569204
0.2040991 0.5419084 0.09440876
0.2028569 0.5441424 0.09311396
0.2015929 0.5463574 0.09180792
0.2003068 0.5485532 0.09049094
0.1989984 0.5507294 0.08916332
0.1976675 0.5528855 0.08782538
0.1963139 0.5550212 0.08647745
0.1949374 0.557136 0.08511989
0.1935378 0.5592295 0.08375306
0.1921148 0.5613014 0.08237734
0.1906683 0.5633512 0.08099312
0.1891981 0.5653785 0.0796008
0.1877039 0.5673829 0.07820082
0.1861856 0.569364 0.07679362
0.1846431 0.5713213 0.07537966
0.183076 0.5732546 0.0739594
0.1814844 0.5751633 0.07253335
0.179868 0.577047 0.071102
0.1782266 0.5789054 0.0696659
0.1765601 0.5807381 0.06822557
0.1748685 0.5825445 0.06678158
0.1731515 0.5843244 0.06533451
0.1714091 0.5860774 0.06388495
0.1696411 0.587803 0.06243352
0.1678475 0.5895009 0.06098085
0.1660282 0.5911707 0.05952759
0.1641831 0.592812 0.05807441
0.1623122 0.5944246 0.05662197
0.1604154 0.5960079 0.055171
0.1584927 0.5975618 0.0537222
0.1565442 0.5990858 0.0522763
0.1545698 0.6005797 0.05083405
0.1525695 0.6020431 0.04939622
0.1505434 0.6034759 0.04796359
0.1484916 0.6048776 0.04653695
0.1464141 0.606248 0.04511709
0.1443111 0.607587 0.04370486
0.1421825 0.6088942 0.04230106
0.1400287 0.6101696 0.04090655
0.1378497 0.6114128 0.03952217
0.1356457 0.6126237 0.0381488
0.133417 0.6138023 0.03678729
0.1311636 0.6149483 0.03543852
0.128886 0.6160618 0.03410337
0.1265842 0.6171425 0.03278273
0.1242587 0.6181906 0.03147749
0.1219097 0.6192059 0.03018853
0.1195375 0.6201884 0.02891675
0.1171425 0.6211383 0.02766302
0.1147251 0.6220556 0.02642824
0.1122856 0.6229404 0.02521328
0.1098244 0.6237928 0.02401901
0.107342 0.624613 0.02284629
0.1048389 0.6254011 0.02169597
0.1023155 0.6261575 0.02056889
0.09977223 0.6268823 0.01946587
0.09720968 0.6275758 0.01838771
0.09462835 0.6282385 0.0173352
0.09202878 0.6288705 0.0163091
0.08941154 0.6294724 0.01531015
0.0867772 0.6300445 0.01433906
0.08412633 0.6305873 0.01339651
0.08145955 0.6311013 0.01248317
0.07877747 0.631587 0.01159964
0.0760807 0.632045 0.01074651
0.07336988 0.6324758 0.009924338
0.07064564 0.6328801 0.009133623
0.06790864 0.6332584 0.008374832
0.06515951 0.6336115 0.007648386
0.06239892 0.6339401 0.006954659
0.0596275 0.6342449 0.006293976
0.05684593 0.6345266 0.005666611
0.05405484 0.6347861 0.005072787
0.05125489 0.635024 0.004512669
0.0484467 0.6352413 0.003986366
0.04563092 0.6354388 0.003493926
0.04280816 0.6356173 0.003035339
0.03997904 0.6357777 0.002610528
0.03714415 0.6359208 0.002219353
0.03430407 0.6360476 0.001861606
0.03145936 0.6361589 0.00153701
0.02861058 0.6362557 0.001245216
0.02575822 0.6363389 0.0009858042
0.02290281 0.6364092 0.0007582774
0.02004481 0.6364678 0.0005620629
0.01718466 0.6365154 0.0003965084
0.01432279 0.636553 0.0002608807
0.01145958 0.6365813 0.000154363
0.008595391 0.6366013 7.605271e-05
0.005730544 0.6366139 2.4959e-05
0.00286533 0.6366198 0
0 0.6366198 0

LINES 349 1047
2 0 1
2 1 2
2 2 3
2 3 4
2 4 5
2 5 6
2 6 7
2 7 8
2 8 9
2 9 10
2 10 11
2 11 12
2 12 13
2 13 14
2 14 15
2 15 16
2 16 17
2 17 18
2 18 19
2 19 20
2 20 21
2 21 22
2 22 23
2 23 24
2 24 25
2 25 26
2 26 27
2 27 28
2 28 29
2 29 30
2 30 31
2 31 32
2 32 33
2 33 34
2 34 35
2 35 36
2 36 37
2 37 38
2 38 39
2 39 40
2 40 41
2 41 42
2 42 43
2 43 44
2 44 45
2 45 46
2 46 47
2 47 48
2 48 49
2 49 50
2 50 51
2 51 52
2 52 53
2 53 54
2 54 55
2 55 56
2 56 57
2 57 58
2 58 59
2 59 60
2 60 61
2 61 62
2 62 63
2 63 64
2 64 65
2 65 66
2 66 67
2 67 68
2 68 69
2 69 70
2 70 71
2 71 72
2 72 73
2 73 74
2 74 75
2 75 76
2 76 77
2 77 78
2 78 79
2 79 80
2 80 81
2 81 82
2 82 83
2 83 84
2 84 85
2 85 86
2 86 87
2 87 88
2 88 89
2 89 90
2 90 91
2 91 92
2 92 93
2 93 94
2 94 95
2 95 96
2 96 97
2 97 98
2 98 99
2 99 100
2 100 101
2 101 102
2 102 103
2 103 104
2 104 105
2 105 106
2 106 107
2 107 108
2 108 109
2 109 110
2 110 111
2 111 112
2 112 113
2 113 114
2 114 115
2 115 116
2 116 117
2 117 118
2 118 119
2 119 120
2 120 121
2 121 122
2 122 123
2 123 124
2 124 125
2 125 126
2 126 127
2 127 128
2 128 129
2 129 130
2 130 131
2 131 132
2 132 133
2 133 134
2 134 135
2 135 136
2 136 137
2 137 138
2 138 139
2 139 140
2 140 141
2 141 142
2 142 143
2 143 144
2 144 145
2 145 146
2 146 147
2 147 148
2 148 149
2 149 150
2 150 151
2 151 152
2 152 153
2 153 154
2 154 155
2 155 156
2 156 157
2 157 158
2 158 159
2 159 160
2 160 161
2 161 162
2 162 163
2 163 164
2 164 165
2 165 166
2 166 167
2 167 168
2 168 169
2 169 170
2 170 171
2 171 172
2 172 173
2 173 174
2 174 175
2 175 176
2 176 177
2 177 178
2 178 179
2 179 180
2 180 181
2 181 182
2 182 183
2 183 184
2 184 185
2 185 186
2 186 187
2 187 188
2 188 189
2 189 190
2 190 191
2 191 192
2 192 193
2 193 194
2 194 195
2 195 196
2 196 197
2 197 198
2 198 199
2 199 200
2 200 201
2 201 202
2 202 203
2 203 204
2 204 205
2 205 206
2 206 207
2 207 208
2 208 209
2 209 210
2 210 211
2 211 212
2 212 213
2 213 214
2 214 215
2 215 216
2 216 217
2 217 218
2 218 219
2 219 220
2 220 221
2 221 222
2 222 223
2 223 224
2 224 225
2 225 226
2 226 227
2 227 228
2 228 229
2 229 230
2 230 231
2 231 232
2 232 233
2 233 234
2 234 235
2 235 236
2 236 237
2 237 238
2 238 239
2 239 240
2 240 241
2 241 242
2 242 243
2 243 244
2 244 245
2 245 246
2 246 247
2 247 248
2 248 249
2 249 250
2 250 251
2 251 252
2 252 253
2 253 254
2 254 255
2 255 256
2 256 257
2 257 258
2 258 259
2 259 260
2 260 261
2 261 262
2 262 263
2 263 264
2 264 265
2 265 266
2 266 267
2 267 268
2 268 269
2 269 270
2 270 271
2 271 272
2 272 273
2 273 274
2 274 275
2 275 276
2 276 277
2 277 278
2 278 279
2 279 280
2 280 281
2 281 282
2 282 283
2 283 284
2 284 285
2 285 286
2 286 287
2 287 288
2 288 289
2 289 290
2 290 291
2 291 292
2 292 293
2 293 294
2 294 295
2 295 296
2 296 297
2 297 298
2 298 299
2 299 300
2 300 301
2 301 302
2 302 303
2 303 304
2 304 305
2 305 306
2 306 307
2 307 308
2 308 309
2 309 310
2 310 311
2 311 312
2 312 313
2 313 314
2 314 315
2 315 316
2 316 317
2 317 318
2 318 319
2 319 320
2 320 321
2 321 322
2 322 323
2 323 324
2 324 325
2 325 326
2 326 327
2 327 328
2 328 329
2 329 330
2 330 331
2 331 332
2 332 333
2 333 334
2 334 335
2 335 336
2 336 337
2 337 338
2 338 339
2 339 340
2 340 341
2 341 342
2 342 343
2 343 344
2 344 345
2 345 346
2 346 347
2 347 348
2 348 349


POINT_DATA 350
SCALARS a FLOAT 1
LOOKUP_TABLE default
0.0005894628
0.0005894628
0.0005894628
0.0005894628
0.0005894628
0.0005894628
0.0005894628
0.0005894628
0.0005894628
0.0005894628
0.0005894628
0.0005894628
0.0005894628
0.0005894628
0.0005894628
0.0005894628
0.0005894628
0.0005894628
0.0005894628
0.0005894628
0.0005894628
0.0005894628
0.0005894628
0.0005894628
0.0005894628
0.0005894628
0.0005894628
0.0005894628
0.0005894628
0.0005894628
0.0005894628
0.0005894628
0.0005894628
0.0005894628
0.0005894628
0.0005894628
0.0005894628
0.0005894628
0.0005894628
0.0005894628
0.0005894628
0.0005894628
0.0005894628
0.0005894628
0.0005894628
0.0005894628
0.0005894628
0.0005894628
0.0005894628
0.0005894628
0.0005894628
0.0005894628
0.0005894628
0.0005894628
0.0005894628
0.0005894628
0.0005894628
0.0005894628
0.0005894628
0.0005894628
0.0005894628
0.0005894628
0.0005894628
0.0005894628
0.0005894628
0.0005894628
0.0005894628
0.0005894628
0.0005894628
0.0005894628
0.0005894628
0.0005894628
0.0005894628
0.0005894628
0.0005894628
0.0005894628
0.0005894628
0.0005894628
0.0005894628
0.0005894628
0.0005894628
0.0005894628
0.0005894628
0.0005894628
0.0005894628
0.0005894628
0.0005894628
0.0005894628
0.0005894628
0.0005894628
0.0005894628
0.0005894628
0.0005894628
0.0005894628
0.0005894628
0.0005894628
0.0005894628
0.0005894628
0.0005894628
0.0005894628
0.0005894628
0.0005894628
0.0005894628
0.0005894628
0.0005894628
0.0005894628
0.0005894628
0.0005894628
0.0005894628
0.0005894628
0.0005894628
0.0005894628
0.0005894628
0.0005894628
0.0005894628
0.0005894628
0.0005894628
0.0005894628
0.0005894628
0.0005894628
0.0005894628
0.0005894628
0.0005894628
0.0005894628
0.0005894628
0.0005894628
0.0005894628
0.0005894628
0.0005894628
0.0005894628
0.0005894628
0.0005894628
0.0005894628
0.0005894628
0.0005894628
0.0005894628
0.0005894628
0.0005894628
0.0005894628
0.0005894628
0.0005894628
0.0005894628
0.0005894628
0.0005894628
0.0005894628
0.0005894628
0.0005894628
0.0005894628
0.0005894628
0.0005894628
0.0005894628
0.0005894628
0.0005894628
0.0005894628
0.0005894628
0.0005894628
0.0005894628
0.0005894628
0.0005894628
0.0005894628
0.0005894628
0.0005894628
0.0005894628
0.0005894628
0.0005894628
0.0005894628
0.0005894628
0.0005894628
0.0005894628
0.0005894628
0.0005894628
0.0005894628
0.0005894628
0.0005894628
0.0005894628
0.0005894628
0.0005894628
0.0005894628
0.0005894628
0.0005894628
0.0005894628
0.0005894628
0.0005894628
0.0005894628
0.0005894628
0.0005894628
0.0005894628
0.0005894628
0.0005894628
0.0005894628
0.0005894628
0.0005894628
0.0005894628
0.0005894628
0.0005894628
0.0005894628
0.0005894628
0.0005894628
0.0005894628
0.0005894628
0.0005894628
0.0005894628
0.0005894628
0.0005894628
0.0005894628
0.0005894628
0.0005894628
0.0005894628
0.0005894628
0.0005894628
0.0005894628
0.0005894628
0.0005894628
0.0005894628
0.0005894628
0.0005894628
0.0005894628
0.0005894628
0.0005894628
0.0005894628
0.0005894628
0.0005894628
0.0005894628
0.0005894628
0.0005894628
0.0005894628
0.0005894628
0.0005894628
0.0005894628
0.0005894628
0.0005894628
0.0005894628
0.0005894628
0.0005894628
0.0005894628
0.0005894628
0.0005894628
0.0005894628
0.0005894628
0.0005894628
0.0005894628
0.0005894628
0.0005894628
0.0005894628
0.0005894628
0.0005894628
0.0005894628
0.0005894628
0.0005894628
0.0005894628
0.0005894628
0.0005894628
0.0005894628
0.0005894628
0.0005894628
0.0005894628
0.0005894628
0.0005894628
0.0005894628
0.0005894628
0.0005894628
0.0005894628
0.0005894628
0.0005894628
0.0005894628
0.0005894628
0.0005894628
0.0005894628
0.0005894628
0.0005894628
0.0005894628
0.0005894628
0.0005894628
0.0005894628
0.0005894628
0.0005894628
0.0005894628
0.0005894628
0.0005894628
0.0005894628
0.0005894628
0.0005894628
0.0005894628
0.0005894628
0.0005894628
0.0005894628
0.0005894628
0.0005894628
0.0005894628
0.0005894628
0.0005894628
0.0005894628
0.0005894628
0.0005894628
0.0005894628
0.0005894628
0.0005894628
0.0005894628
0.0005894628
0.0005894628
0.0005894628
0.0005894628
0.0005894628
0.0005894628
0.0005894628
0.0005894628
0.0005894628
0.0005894628
0.0005894628
0.0005894628
0.0005894628
0.0005894628
0.0005894628
0.0005894628
0.0005894628
0.0005894628
0.0005894628
0.0005894628
0.0005894628
0.0005894628
0.0005894628
0.0005894628
0.0005894628
0.0005894628
0.0005894628
0.0005894628
0.0005894628
0.0005894628
0.0005894628
0.0005894628
0.0005894628
0.0005894628
0.0005894628
0.0005894628
0.0005894628
0.0005894628
0.0005894628
0.0005894628
0.0005894628
0.0005894628
0.0005894628
0.0005894628
0.0005894628
0.0005894628
0.0005894628
0.0005894628
0.0005894628
0.0005894628
0.0005894628
0.0005894628


SCALARS b FLOAT 1
LOOKUP_TABLE default
0.02357851
0.02357851
0.02357851
0.02357851
0.02357851
0.02357851
0.02357851
0.02357851
0.02357851
0.02357851
0.02357851
0.02357851
0.02357851
0.02357851
0.02357851
0.02357851
0.02357851
0.02357851
0.02357851
0.02357851
0.02357851
0.02357851
0.02357851
0.02357851
0.02357851
0.02357851
0.02357851
0.02357851
0.02357851
0.02357851
0.02357851
0.02357851
0.02357851
0.02357851
0.02357851
0.02357851
0.02357851
0.02357851
0.02357851
0.02357851
0.02357851
0.02357851
0.02357851
0.02357851
0.02357851
0.02357851
0.02357851
0.02357851
0.02357851
0.02357851
0.02357851
0.02357851
0.02357851
0.02357851
0.02357851
0.02357851
0.02357851
0.02357851
0.02357851
0.02357851
0.02357851
0.02357851
0.02357851
0.02357851
0.02357851
0.02357851
0.02357851
0.02357851
0.02357851
0.02357851
0.02357851
0.02357851
0.02357851
0.02357851
0.02357851
0.02357851
0.02357851
0.02357851
0.02357851
0.02357851
0.02357851
0.02357851
0.02357851
0.02357851
0.02357851
0.02357851
0.02357851
0.02357851
0.02357851
0.02357851
0.02357851
0.02357851
0.02357851
0.02357851
0.02357851
0.02357851
0.02357851
0.02357851
0.02357851
0.02357851
0.02357851
0.02357851
0.02357851
0.02357851
0.02357851
0.02357851
0.02357851
0.02357851
0.02357851
0.02357851
0.02357851
0.02357851
0.02357851
0.02357851
0.02357851
0.02357851
0.02357851
0.02357851
0.02357851
0.02357851
0.02357851
0.02357851
0.02357851
0.02357851
0.02357851
0.02357851
0.02357851
0.02357851
0.02357851
0.02357851
0.02357851
0.02357851
0.02357851
0.02357851
0.02357851
0.02357851
0.02357851
0.02357851
0.02357851
0.02357851
0.02357851
0.02357851
0.02357851
0.02357851
0.02357851
0.02357851
0.02357851
0.02357851
0.02357851
0.02357851
0.02357851
0.02357851
0.02357851
0.02357851
0.02357851
0.02357851
0.02357851
0.02357851
0.02357851
0.02357851
0.02357851
0.02357851
0.02357851
0.02357851
0.02357851
0.02357851
0.02357851
0.02357851
0.02357851
0.02357851
0.02357851
0.02357851
0.02357851
0.02357851
0.02357851
0.02357851
0.02357851
0.02357851
0.02357851
0.02357851
0.02357851
0.02357851
0.02357851
0.02357851
0.02357851
0.02357851
0.02357851
0.02357851
0.02357851
0.02357851
0.02357851
0.02357851
0.02357851
0.02357851
0.02357851
0.02357851
0.02357851
0.02357851
0.02357851
0.02357851
0.02357851
0.02357851
0.02357851
0.02357851
0.02357851
0.02357851
0.02357851
0.02357851
0.02357851
0.02357851
0.02357851
0.02357851
0.02357851
0.02357851
0.02357851
0.02357851
0.02357851
0.02357851
0.02357851
0.02357851
0.02357851
0.02357851
0.02357851
0.02357851
0.02357851
0.02357851
0.02357851
0.02357851
0.02357851
0.02357851
0.02357851
0.02357851
0.02357851
0.02357851
0.02357851
0.02357851
0.02357851
0.02357851
0.02357851
0.02357851
0.02357851
0.02357851
0.02357851
0.02357851
0.02357851
0.02357851
0.02357851
0.02357851
0.02357851
0.02357851
0.02357851
0.02357851
0.02357851
0.02357851
0.02357851
0.02357851
0.02357851
0.02357851
0.02357851
0.02357851
0.02357851
0.02357851
0.02357851
0.02357851
0.02357851
0.02357851
0.02357851
0.02357851
0.02357851
0.02357851
0.02357851
0.02357851
0.02357851
0.02357851
0.02357851
0.02357851
0.02357851
0.02357851
0.02357851
0.02357851
0.02357851
0.02357851
0.02357851
0.02357851
0.02357851
0.02357851
0.02357851
0.02357851
0.02357851
0.02357851
0.02357851
0.02357851
0.02357851
0.02357851
0.02357851
0.02357851
0.02357851
0.02357851
0.02357851
0.02357851
0.02357851
0.02357851
0.02357851
0.02357851
0.02357851
0.02357851
0.02357851
0.02357851
0.02357851
0.02357851
0.02357851
0.02357851
0.02357851
0.02357851
0.02357851
0.02357851
0.02357851
0.02357851
0.02357851
0.02357851
0.02357851
0.02357851
0.02357851
0.02357851
0.02357851
0.02357851
0.02357851
0.02357851
0.02357851
0.02357851
0.02357851
0.02357851
0.02357851
0.02357851
0.02357851
0.02357851
0.02357851
0.02357851
0.02357851
0.02357851
0.02357851
0.02357851
0.02357851
0.02357851
0.02357851
0.02357851
0.02357851
0.02357851
0.02357851
0.02357851


VECTORS d1 FLOAT
0 0.2181432 0.9759168
-0.008948693 0.2363465 0.9716276
-0.01835895 0.2544399 0.9669143
-0.02820123 0.2724083 0.9617684
-0.03844698 0.2902367 0.9561822
-0.04906848 0.3079098 0.9501494
-0.06003883 0.3254122 0.9436643
-0.07133186 0.3427286 0.9367224
-0.08292204 0.3598436 0.9293205
-0.09478448 0.3767422 0.921456
-0.1068949 0.3934095 0.9131279
-0.1192294 0.4098306 0.9043358
-0.1317648 0.4259914 0.8950806
-0.1444784 0.4418777 0.8853644
-0.1573478 0.4574759 0.87519
-0.1703513 0.4727728 0.8645613
-0.1834675 0.4877558 0.8534834
-0.1966756 0.5024127 0.8419621
-0.2099551 0.5167317 0.8300043
-0.2232863 0.530702 0.8176177
-0.2366497 0.5443129 0.8048108
-0.2500264 0.5575549 0.7915929
-0.2633982 0.5704186 0.7779743
-0.2767471 0.5828956 0.7639658
-0.2900559 0.5949782 0.7495789
-0.3033078 0.6066592 0.7348258
-0.3164867 0.6179324 0.7197192
-0.3295771 0.6287919 0.7042724
-0.3425639 0.6392329 0.6884993
-0.3554328 0.6492512 0.6724138
-0.36817 0.6588433 0.6560307
-0.3807624 0.6680063 0.6393649
-0.3931976 0.6767382 0.6224315
-0.4054635 0.6850376 0.605246
-0.4175491 0.6929038 0.587824
-0.4294438 0.7003366 0.5701813
-0.4411376 0.7073367 0.5523336
-0.4526212 0.7139054 0.5342969
-0.4638859 0.7200444 0.5160871
-0.4749239 0.7257561 0.4977201
-0.4857277 0.7310437 0.4792117
-0.4962905 0.7359105 0.4605774
-0.5066062 0.7403606 0.441833
-0.5166694 0.7443985 0.4229936
-0.526475 0.7480294 0.4040745
-0.5360187 0.7512584 0.3850905
-0.5452968 0.7540916 0.3660563
-0.5543061 0.7565351 0.3469861
-0.5630438 0.7585955 0.327894
-0.5715079 0.7602797 0.3087937
-0.5796967 0.7615948 0.2896984
-0.587609 0.7625483 0.270621
-0.5952442 0.7631479 0.2515742
-0.6026021 0.7634015 0.23257
-0.6096829 0.7633172 0.2136201
-0.6164872 0.7629033 0.1947359
-0.623016 0.7621682 0.1759282
-0.6292708 0.7611202 0.1572075
-0.6352534 0.7597682 0.1385836
-0.6409658 0.7581207 0.1200663
-0.6464104 0.7561864 0.1016645
-0.6515901 0.7539741 0.08338701
-0.6565078 0.7514925 0.06524198
-0.6611667 0.7487504 0.04723724
-0.6655705 0.7457565 0.02938013
-0.6697228 0.7425194 0.01167761
-0.6736275 0.7390477 -0.005863803
-0.6772889 0.7353501 -0.02323801
-0.6807113 0.7314348 -0.0404393
-0.683899 0.7273102 -0.05746236
-0.6868568 0.7229847 -0.07430228
-0.6895894 0.7184662 -0.09095449
-0.6921016 0.7137628 -0.1074148
-0.6943985 0.7088823 -0.1236794
-0.6964849 0.7038324 -0.1397449
-0.6983662 0.6986207 -0.1556079
-0.7000474 0.6932544 -0.1712658
-0.7015338 0.6877408 -0.186716
-0.7028307 0.682087 -0.2019562
-0.7039433 0.6762998 -0.2169846
-0.7048771 0.670386 -0.2317994
-0.7056373 0.6643519 -0.2463993
-0.7062292 0.658204 -0.2607831
-0.7066583 0.6519484 -0.2749499
-0.7069298 0.645591 -0.2888989
-0.707049 0.6391377 -0.3026299
-0.7070211 0.632594 -0.3161423
-0.7068516 0.6259653 -0.3294363
-0.7065454 0.6192569 -0.3425119
-0.7061079 0.6124738 -0.3553694
-0.705544 0.605621 -0.3680093
-0.704859 0.598703 -0.3804321
-0.7040576 0.5917243 -0.3926387
-0.703145 0.5846895 -0.4046299
-0.702126 0.5776025 -0.4164066
-0.7010053 0.5704674 -0.4279701
-0.6997878 0.5632881 -0.4393217
-0.6984781 0.5560682 -0.4504625
-0.6970808 0.5488113 -0.4613941
-0.6956005 0.5415207 -0.4721179
-0.6940415 0.5341996 -0.4826357
-0.6924083 0.5268511 -0.492949
-0.6907051 0.5194781 -0.5030595
-0.6889363 0.5120834 -0.5129692
-0.6871058 0.5046697 -0.5226798
-0.6852178 0.4972394 -0.5321931
-0.6832763 0.4897949 -0.5415113
-0.6812851 0.4823385 -0.5506362
-0.679248 0.4748724 -0.5595698
-0.6771689 0.4673985 -0.5683141
-0.6750513 0.4599187 -0.5768713
-0.6728989 0.4524349 -0.5852433
-0.670715 0.4449487 -0.5934324
-0.6685033 0.4374617 -0.6014404
-0.6662669 0.4299754 -0.6092697
-0.6640092 0.4224912 -0.6169222
-0.6617333 0.4150103 -0.6244001
-0.6594424 0.407534 -0.6317054
-0.6571395 0.4000634 -0.6388403
-0.6548275 0.3925995 -0.6458069
-0.6525094 0.3851433 -0.6526071
-0.650188 0.3776956 -0.6592432
-0.647866 0.3702573 -0.6657171
-0.6455461 0.362829 -0.6720308
-0.6432308 0.3554115 -0.6781864
-0.6409228 0.3480054 -0.6841858
-0.6386246 0.3406111 -0.690031
-0.6363384 0.3332292 -0.6957239
-0.6340667 0.3258601 -0.7012664
-0.6318118 0.3185041 -0.7066605
-0.6295757 0.3111616 -0.7119079
-0.6273608 0.3038327 -0.7170105
-0.6251691 0.2965179 -0.7219701
-0.6230026 0.2892171 -0.7267883
-0.6208633 0.2819305 -0.731467
-0.618753 0.2746583 -0.7360078
-0.6166737 0.2674004 -0.7404124
-0.6146272 0.2601569 -0.7446823
-0.6126152 0.2529277 -0.7488192
-0.6106393 0.2457128 -0.7528246
-0.6087012 0.238512 -0.7567
-0.6068025 0.2313254 -0.7604468
-0.6049447 0.2241526 -0.7640664
-0.6031293 0.2169935 -0.7675603
-0.6013577 0.209848 -0.7709298
-0.5996312 0.2027157 -0.7741761
-0.5979513 0.1955965 -0.7773006
-0.5963191 0.18849 -0.7803045
-0.5947358 0.181396 -0.7831889
-0.5932027 0.1743141 -0.7859549
-0.5917209 0.167244 -0.7886037
-0.5902915 0.1601853 -0.7911363
-0.5889154 0.1531378 -0.7935537
-0.5875936 0.1461009 -0.7958569
-0.5863272 0.1390743 -0.7980468
-0.585117 0.1320576 -0.8001243
-0.5839638 0.1250504 -0.8020902
-0.5828684 0.1180521 -0.8039454
-0.5818316 0.1110625 -0.8056904
-0.5808541 0.104081 -0.8073262
-0.5799366 0.09710713 -0.8088533
-0.5790797 0.09014045 -0.8102724
-0.5782839 0.08318047 -0.8115841
-0.5775498 0.0762267 -0.8127888
-0.576878 0.06927865 -0.8138871
-0.5762687 0.06233582 -0.8148795
-0.5757226 0.05539768 -0.8157663
-0.5752398 0.04846375 -0.8165479
-0.5748207 0.0415335 -0.8172246
-0.5744657 0.0346064 -0.8177968
-0.5741749 0.02768195 -0.8182646
-0.5739485 0.02075961 -0.8186282
-0.5737867 0.01383886 -0.8188879
-0.5736895 0.006919164 -0.8190436
-0.5736571 -1.460221e-12 -0.8190955
-0.5736895 -0.006919164 -0.8190436
-0.5737867 -0.01383886 -0.8188879
-0.5739485 -0.02075961 -0.8186282
-0.5741749 -0.02768195 -0.8182646
-0.5744657 -0.0346064 -0.8177968
-0.5748207 -0.0415335 -0.8172246
-0.5752398 -0.04846375 -0.8165479
-0.5757226 -0.05539768 -0.8157663
-0.5762687 -0.06233582 -0.8148795
-0.576878 -0.06927865 -0.8138871
-0.5775498 -0.0762267 -0.8127888
-0.5782839 -0.08318047 -0.8115841
-0.5790797 -0.09014045 -0.8102724
-0.5799366 -0.09710713 -0.8088533
-0.5808541 -0.104081 -0.8073262
-0.5818316 -0.1110625 -0.8056904
-0.5828684 -0.1180521 -0.8039454
-0.5839638 -0.1250504 -0.8020902
-0.585117 -0.1320576 -0.8001243
-0.5863272 -0.1390743 -0.7980468
-0.5875936 -0.1461009 -0.7958569
-0.5889154 -0.1531378 -0.7935537
-0.5902915 -0.1601853 -0.7911363
-0.5917209 -0.167244 -0.7886037
-0.5932027 -0.1743141 -0.7859549
-0.5947358 -0.181396 -0.7831889
-0.5963191 -0.18849 -0.7803045
-0.5979513 -0.1955965 -0.7773006
-0.5996312 -0.2027157 -0.7741761
-0.6013577 -0.209848 -0.7709298
-0.6031293 -0.2169935 -0.7675603
-0.6049447 -0.2241526 -0.7640664
-0.6068025 -0.2313254 -0.7604468
-0.6087012 -0.238512 -0.7567
-0.6106393 -0.2457128 -0.7528246
-0.6126152 -0.2529277 -0.7488192
-0.6146272 -0.2601569 -0.7446823
-0.6166737 -0.2674004 -0.7404124
-0.618753 -0.2746583 -0.7360078
-0.6208633 -0.2819305 -0.731467
-0.6230026 -0.2892171 -0.7267883
-0.6251691 -0.2965179 -0.7219701
-0.6273608 -0.3038327 -0.7170105
-0.6295757 -0.3111616 -0.7119079
-0.6318118 -0.3185041 -0.7066605
-0.6340667 -0.3258601 -0.7012664
-0.6363384 -0.3332292 -0.6957239
-0.6386246 -0.3406111 -0.690031
-0.6409228 -0.3480054 -0.6841858
-0.6432308 -0.3554115 -0.6781864
-0.6455461 -0.362829 -0.6720308
-0.647866 -0.3702573 -0.6657171
-0.650188 -0.3776956 -0.6592432
-0.6525094 -0.3851433 -0.6526071
-0.6548275 -0.3925995 -0.6458069