# vtk DataFile Version 2.0
Written badly by Kevin Korner
ASCII
DATASET POLYDATA
POINTS 350 FLOAT
0 0 0
0.00286533 0 0
0.005730538 2.612898e-05 -3.359361e-06
0.008595383 7.838375e-05 -1.003223e-05
0.01145962 0.0001567588 -1.997268e-05
0.01432302 0.0002612465 -3.313471e-05
0.01718532 0.0003918366 -4.947224e-05
0.0200463 0.0005485169 -6.893913e-05
0.0229057 0.0007312727 -9.148919e-05
0.0257633 0.0009400873 -0.0001170762
0.02861885 0.001174941 -0.0001456538
0.0314721 0.001435814 -0.0001771757
0.03432283 0.00172268 -0.0002115955
0.03717078 0.002035516 -0.0002488668
0.04001573 0.002374292 -0.0002889432
0.04285744 0.002738978 -0.0003317783
0.04569566 0.003129541 -0.0003773255
0.04853016 0.003545948 -0.0004255384
0.0513607 0.00398816 -0.0004763706
0.05418705 0.004456138 -0.0005297755
0.05700898 0.004949842 -0.0005857067
0.05982623 0.005469227 -0.0006441177
0.06263859 0.006014248 -0.0007049621
0.06544582 0.006584856 -0.0007681935
0.06824768 0.007181002 -0.0008337655
0.07104394 0.007802633 -0.0009016318
0.07383437 0.008449695 -0.0009717459
0.07661874 0.009122131 -0.001044062
0.07939682 0.009819883 -0.001118533
0.08216837 0.01054289 -0.001195113
0.08493317 0.01129109 -0.001273757
0.087691 0.01206441 -0.001354418
0.09044161 0.01286279 -0.001437049
0.09318479 0.01368617 -0.001521606
0.0959203 0.01453446 -0.001608043
0.09864793 0.0154076 -0.001696313
0.1013674 0.01630551 -0.001786371
0.1040786 0.01722811 -0.001878171
0.1067812 0.01817532 -0.001971668
0.1094751 0.01914706 -0.002066817
0.1121599 0.02014325 -0.002163572
0.1148355 0.02116381 -0.002261888
0.1175017 0.02220863 -0.002361721
0.1201582 0.02327765 -0.002463024
0.1228049 0.02437075 -0.002565754
0.1254414 0.02548786 -0.002669866
0.1280676 0.02662886 -0.002775316
0.1306833 0.02779368 -0.002882058
0.1332883 0.0289822 -0.002990049
0.1358823 0.03019433 -0.003099244
0.1384652 0.03142995 -0.0032096
0.1410367 0.03268898 -0.003321073
0.1435966 0.0339713 -0.00343362
0.1461447 0.03527679 -0.003547196
0.1486808 0.03660536 -0.003661759
0.1512047 0.03795689 -0.003777266
0.1537162 0.03933126 -0.003893673
0.1562151 0.04072835 -0.004010939
0.1587012 0.04214805 -0.004129019
0.1611743 0.04359025 -0.004247873
0.1636341 0.04505481 -0.004367458
0.1660806 0.04654161 -0.004487732
0.1685134 0.04805053 -0.004608653
0.1709324 0.04958144 -0.00473018
0.1733374 0.05113422 -0.004852271
0.1757283 0.05270872 -0.004974886
0.1781047 0.05430483 -0.005097983
0.1804665 0.0559224 -0.005221522
0.1828136 0.0575613 -0.005345462
0.1851457 0.05922139 -0.005469764
0.1874627 0.06090254 -0.005594387
0.1897643 0.06260459 -0.005719292
0.1920504 0.06432742 -0.005844439
0.1943208 0.06607088 -0.005969789
0.1965754 0.06783482 -0.006095303
0.1988138 0.06961909 -0.006220943
0.201036 0.07142354 -0.006346669
0.2032418 0.07324803 -0.006472444
0.205431 0.07509241 -0.00659823
0.2076035 0.07695651 -0.006723989
0.2097589 0.07884019 -0.006849685
0.2118973 0.08074328 -0.006975279
0.2140184 0.08266564 -0.007100735
0.216122 0.08460709 -0.007226016
0.2182079 0.08656749 -0.007351087
0.2202761 0.08854667 -0.007475911
0.2223264 0.09054445 -0.007600453
0.2243585 0.09256069 -0.007724678
0.2263723 0.09459521 -0.007848549
0.2283677 0.09664784 -0.007972034
0.2303445 0.09871841 -0.008095097
0.2323025 0.1008068 -0.008217703
0.2342416 0.1029127 -0.008339821
0.2361617 0.1050361 -0.008461415
0.2380625 0.1071767 -0.008582452
0.239944 0.1093344 -0.008702901
0.2418059 0.111509 -0.008822728
0.2436482 0.1137004 -0.008941901
0.2454707 0.1159082 -0.009060389
0.2472732 0.1181325 -0.009178159
0.2490556 0.1203729 -0.009295182
0.2508178 0.1226293 -0.009411425
0.2525596 0.1249015 -0.009526858
0.2542809 0.1271893 -0.009641452
0.2559815 0.1294926 -0.009755176
0.2576613 0.1318111 -0.009868001
0.2593203 0.1341446 -0.009979898
0.2609582 0.1364931 -0.01009084
0.2625749 0.1388562 -0.01020079
0.2641703 0.1412338 -0.01030974
0.2657443 0.1436256 -0.01041764
0.2672967 0.1460316 -0.01052447
0.2688275 0.1484514 -0.01063021
0.2703364 0.150885 -0.01073482
0.2718235 0.1533321 -0.01083829
0.2732885 0.1557924 -0.01094059
0.2747314 0.1582659 -0.01104168
0.276152 0.1607522 -0.01114156
0.2775502 0.1632513 -0.01124018
0.278926 0.1657629 -0.01133753
0.2802792 0.1682867 -0.01143359
0.2816097 0.1708226 -0.01152832
0.2829174 0.1733704 -0.01162171
0.2842022 0.1759299 -0.01171374
0.285464 0.1785009 -0.01180438
0.2867027 0.1810831 -0.0118936
0.2879182 0.1836763 -0.0119814
0.2891104 0.1862804 -0.01206774
0.2902792 0.1888951 -0.01215261
0.2914246 0.1915202 -0.01223598
0.2925464 0.1941556 -0.01231785
0.2936445 0.1968009 -0.01239817
0.294719 0.199456 -0.01247695
0.2957696 0.2021206 -0.01255416
0.2967963 0.2047946 -0.01262977
0.297799 0.2074778 -0.01270378
0.2987776 0.2101698 -0.01277617
0.2997321 0.2128706 -0.01284691
0.3006625 0.2155798 -0.01291599
0.3015685 0.2182973 -0.01298341
0.3024502 0.2210228 -0.01304913
0.3033074 0.2237561 -0.01311314
0.3041402 0.226497 -0.01317544
0.3049484 0.2292454 -0.013236
0.305732 0.2320008 -0.01329481
0.3064909 0.2347632 -0.01335186
0.3072251 0.2375324 -0.01340714
0.3079345 0.240308 -0.01346062
0.3086191 0.2430898 -0.01351231
0.3092787 0.2458778 -0.01356218
0.3099134 0.2486715 -0.01361023
0.3105231 0.2514708 -0.01365644
0.3111078 0.2542755 -0.01370081
0.3116673 0.2570854 -0.01374332
0.3122017 0.2599001 -0.01378397
0.312711 0.2627196 -0.01382274
0.313195 0.2655435 -0.01385963
0.3136538 0.2683716 -0.01389463
0.3140872 0.2712038 -0.01392772
0.3144954 0.2740397 -0.01395891
0.3148782 0.2768792 -0.01398818
0.3152356 0.279722 -0.01401553
0.3155676 0.282568 -0.01404096
0.3158741 0.2854168 -0.01406445
0.3161552 0.2882682 -0.014086
0.3164108 0.291122 -0.01410561
0.316641 0.293978 -0.01412327
0.3168455 0.296836 -0.01413898
0.3170246 0.2996957 -0.01415273
0.3171781 0.3025569 -0.01416452
0.317306 0.3054194 -0.01417435
0.3174084 0.3082828 -0.01418222
0.3174851 0.3111471 -0.01418812
0.3175363 0.314012 -0.01419206
0.3175619 0.3168772 -0.01419403
0.3175619 0.3197426 -0.01419403
0.3175363 0.3226078 -0.01419206
0.3174851 0.3254726 -0.01418812
0.3174084 0.3283369 -0.01418222
0.317306 0.3312004 -0.01417435
0.3171781 0.3340629 -0.01416452
0.3170246 0.3369241 -0.01415273
0.3168455 0.3397838 -0.01413898
0.316641 0.3426417 -0.01412327
0.3164108 0.3454978 -0.01410561
0.3161552 0.3483516 -0.014086
0.3158741 0.351203 -0.01406445
0.3155676 0.3540518 -0.01404096
0.3152356 0.3568977 -0.01401553
0.3148782 0.3597405 -0.01398818
0.3144954 0.36258 -0.01395891
0.3140872 0.365416 -0.01392772
0.3136538 0.3682481 -0.01389463
0.313195 0.3710763 -0.01385963
0.312711 0.3739002 -0.01382274
0.3122017 0.3767196 -0.01378397
0.3116673 0.3795344 -0.01374332
0.3111078 0.3823442 -0.01370081
0.3105231 0.3851489 -0.01365644
0.3099134 0.3879483 -0.01361023
0.3092787 0.390742 -0.01356218
0.3086191 0.3935299 -0.01351231
0.3079345 0.3963118 -0.01346062
0.3072251 0.3990874 -0.01340714
0.3064909 0.4018565 -0.01335186
0.305732 0.4046189 -0.01329481
0.3049484 0.4073744 -0.013236
0.3041402 0.4101227 -0.01317544
0.3033074 0.4128637 -0.01311314
0.3024502 0.415597 -0.01304913
0.3015685 0.4183225 -0.01298341
0.3006625 0.42104 -0.01291599
0.2997321 0.4237492 -0.01284691
0.2987776 0.4264499 -0.01277617
0.297799 0.429142 -0.01270378
0.2967963 0.4318251 -0.01262977
0.2957696 0.4344991 -0.01255416
0.294719 0.4371638 -0.01247695
0.2936445 0.4398189 -0.01239817
0.2925464 0.4424642 -0.01231785
0.2914246 0.4450995 -0.01223598
0.2902792 0.4477247 -0.01215261
0.2891104 0.4503394 -0.01206774
0.2879182 0.4529435 -0.0119814
0.2867027 0.4555367 -0.0118936
0.285464 0.4581189 -0.01180438
0.2842022 0.4606899 -0.01171374
0.2829174 0.4632493 -0.01162171
0.2816097 0.4657971 -0.01152832
0.2802792 0.4683331 -0.01143359
0.278926 0.4708569 -0.01133753
0.2775502 0.4733685 -0.01124018
0.276152 0.4758675 -0.01114156
0.2747314 0.4783539 -0.01104168
0.2732885 0.4808273 -0.01094059
0.2718235 0.4832877 -0.01083829
0.2703364 0.4857348 -0.01073482
0.2688275 0.4881683 -0.01063021
0.2672967 0.4905882 -0.01052447
0.2657443 0.4929941 -0.01041764
0.2641703 0.495386 -0.01030974
0.2625749 0.4977636 -0.01020079
0.2609582 0.5001267 -0.01009084
0.2593203 0.5024751 -0.009979898
0.2576613 0.5048087 -0.009868001
0.2559815 0.5071272 -0.009755176
0.2542809 0.5094305 -0.009641452
0.2525596 0.5117183 -0.009526858
0.2508178 0.5139905 -0.009411425
0.2490556 0.5162469 -0.009295182
0.2472732 0.5184873 -0.009178159
0.2454707 0.5207115 -0.009060389
0.2436482 0.5229194 -0.008941901
0.2418059 0.5251107 -0.008822728
0.239944 0.5272853 -0.008702901
0.2380625 0.529443 -0.008582452
0.2361617 0.5315837 -0.008461415
0.2342416 0.5337071 -0.008339821
0.2323025 0.535813 -0.008217703
0.2303445 0.5379014 -0.008095097
0.2283677 0.5399719 -0.007972034
0.2263723 0.5420246 -0.007848549
0.2243585 0.5440591 -0.007724678
0.2223264 0.5460753 -0.007600453
0.2202761 0.5480731 -0.007475911
0.2182079 0.5500523 -0.007351087
0.216122 0.5520127 -0.007226016
0.2140184 0.5539541 -0.007100735
0.2118973 0.5558765 -0.006975279
0.2097589 0.5577796 -0.006849685
0.2076035 0.5596633 -0.006723989
0.205431 0.5615274 -0.00659823
0.2032418 0.5633717 -0.006472444
0.201036 0.5651962 -0.006346669
0.1988138 0.5670007 -0.006220943
0.1965754 0.568785 -0.006095303
0.1943208 0.5705489 -0.005969789
0.1920504 0.5722923 -0.005844439
0.1897643 0.5740152 -0.005719292
0.1874627 0.5757172 -0.005594387
0.1851457 0.5773984 -0.005469764
0.1828136 0.5790585 -0.005345462
0.1804665 0.5806974 -0.005221522
0.1781047 0.5823149 -0.005097983
0.1757283 0.5839111 -0.004974886
0.1733374 0.5854856 -0.004852271
0.1709324 0.5870383 -0.00473018
0.1685134 0.5885692 -0.004608653
0.1660806 0.5900782 -0.004487732
0.1636341 0.591565 -0.004367458
0.1611743 0.5930295 -0.004247873
0.1587012 0.5944717 -0.004129019
0.1562151 0.5958914 -0.004010939
0.1537162 0.5972885 -0.003893673
0.1512047 0.5986629 -0.003777266
0.1486808 0.6000144 -0.003661759
0.1461447 0.601343 -0.003547196
0.1435966 0.6026485 -0.00343362
0.1410367 0.6039308 -0.003321073
0.1384652 0.6051898 -0.0032096
0.1358823 0.6064254 -0.003099244
0.1332883 0.6076376 -0.002990049
0.1306833 0.6088261 -0.002882058
0.1280676 0.6099909 -0.002775316
0.1254414 0.6111319 -0.002669866
0.1228049 0.612249 -0.002565754
0.1201582 0.6133421 -0.002463024
0.1175017 0.6144111 -0.002361721
0.1148355 0.615456 -0.002261888
0.1121599 0.6164765 -0.002163572
0.1094751 0.6174727 -0.002066817
0.1067812 0.6184445 -0.001971668
0.1040786 0.6193917 -0.001878171
0.1013674 0.6203143 -0.001786371
0.09864793 0.6212122 -0.001696313
0.0959203 0.6220853 -0.001608043
0.09318479 0.6229336 -0.001521606
0.09044161 0.623757 -0.001437049
0.087691 0.6245554 -0.001354418
0.08493317 0.6253287 -0.001273757
0.08216837 0.6260769 -0.001195113
0.07939682 0.6267999 -0.001118533
0.07661874 0.6274976 -0.001044062
0.07383437 0.6281701 -0.0009717459
0.07104394 0.6288171 -0.0009016318
0.06824768 0.6294388 -0.0008337655
0.06544582 0.6300349 -0.0007681935
0.06263859 0.6306055 -0.0007049621
0.05982623 0.6311505 -0.0006441177
0.05700898 0.6316699 -0.0005857067
0.05418705 0.6321636 -0.0005297755
0.0513607 0.6326316 -0.0004763706
0.04853016 0.6330738 -0.0004255384
0.04569566 0.6334902 -0.0003773255
0.04285744 0.6338808 -0.0003317783
0.04001573 0.6342455 -0.0002889432
0.03717078 0.6345843 -0.0002488668
0.03432283 0.6348971 -0.0002115955
0.0314721 0.635184 -0.0001771757
0.02861885 0.6354448 -0.0001456538
0.0257633 0.6356797 -0.0001170762
0.0229057 0.6358885 -9.148919e-05
0.0200463 0.6360713 -6.893913e-05
0.01718532 0.6362279 -4.947224e-05
0.01432302 0.6363585 -3.313471e-05
0.01145962 0.636463 -1.997268e-05
0.008595383 0.6365414 -1.003223e-05
0.005730538 0.6365936 -3.359361e-06
0.00286533 0.6366198 0
0 0.6366198 0

LINES 349 1047
2 0 1
2 1 2
2 2 3
2 3 4
2 4 5
2 5 6
2 6 7
2 7 8
2 8 9
2 9 10
2 10 11
2 11 12
2 12 13
2 13 14
2 14 15
2 15 16
2 16 17
2 17 18
2 18 19
2 19 20
2 20 21
2 21 22
2 22 23
2 23 24
2 24 25
2 25 26
2 26 27
2 27 28
2 28 29
2 29 30
2 30 31
2 31 32
2 32 33
2 33 34
2 34 35
2 35 36
2 36 37
2 37 38
2 38 39
2 39 40
2 40 41
2 41 42
2 42 43
2 43 44
2 44 45
2 45 46
2 46 47
2 47 48
2 48 49
2 49 50
2 50 51
2 51 52
2 52 53
2 53 54
2 54 55
2 55 56
2 56 57
2 57 58
2 58 59
2 59 60
2 60 61
2 61 62
2 62 63
2 63 64
2 64 65
2 65 66
2 66 67
2 67 68
2 68 69
2 69 70
2 70 71
2 71 72
2 72 73
2 73 74
2 74 75
2 75 76
2 76 77
2 77 78
2 78 79
2 79 80
2 80 81
2 81 82
2 82 83
2 83 84
2 84 85
2 85 86
2 86 87
2 87 88
2 88 89
2 89 90
2 90 91
2 91 92
2 92 93
2 93 94
2 94 95
2 95 96
2 96 97
2 97 98
2 98 99
2 99 100
2 100 101
2 101 102
2 102 103
2 103 104
2 104 105
2 105 106
2 106 107
2 107 108
2 108 109
2 109 110
2 110 111
2 111 112
2 112 113
2 113 114
2 114 115
2 115 116
2 116 117
2 117 118
2 118 119
2 119 120
2 120 121
2 121 122
2 122 123
2 123 124
2 124 125
2 125 126
2 126 127
2 127 128
2 128 129
2 129 130
2 130 131
2 131 132
2 132 133
2 133 134
2 134 135
2 135 136
2 136 137
2 137 138
2 138 139
2 139 140
2 140 141
2 141 142
2 142 143
2 143 144
2 144 145
2 145 146
2 146 147
2 147 148
2 148 149
2 149 150
2 150 151
2 151 152
2 152 153
2 153 154
2 154 155
2 155 156
2 156 157
2 157 158
2 158 159
2 159 160
2 160 161
2 161 162
2 162 163
2 163 164
2 164 165
2 165 166
2 166 167
2 167 168
2 168 169
2 169 170
2 170 171
2 171 172
2 172 173
2 173 174
2 174 175
2 175 176
2 176 177
2 177 178
2 178 179
2 179 180
2 180 181
2 181 182
2 182 183
2 183 184
2 184 185
2 185 186
2 186 187
2 187 188
2 188 189
2 189 190
2 190 191
2 191 192
2 192 193
2 193 194
2 194 195
2 195 196
2 196 197
2 197 198
2 198 199
2 199 200
2 200 201
2 201 202
2 202 203
2 203 204
2 204 205
2 205 206
2 206 207
2 207 208
2 208 209
2 209 210
2 210 211
2 211 212
2 212 213
2 213 214
2 214 215
2 215 216
2 216 217
2 217 218
2 218 219
2 219 220
2 220 221
2 221 222
2 222 223
2 223 224
2 224 225
2 225 226
2 226 227
2 227 228
2 228 229
2 229 230
2 230 231
2 231 232
2 232 233
2 233 234
2 234 235
2 235 236
2 236 237
2 237 238
2 238 239
2 239 240
2 240 241
2 241 242
2 242 243
2 243 244
2 244 245
2 245 246
2 246 247
2 247 248
2 248 249
2 249 250
2 250 251
2 251 252
2 252 253
2 253 254
2 254 255
2 255 256
2 256 257
2 257 258
2 258 259
2 259 260
2 260 261
2 261 262
2 262 263
2 263 264
2 264 265
2 265 266
2 266 267
2 267 268
2 268 269
2 269 270
2 270 271
2 271 272
2 272 273
2 273 274
2 274 275
2 275 276
2 276 277
2 277 278
2 278 279
2 279 280
2 280 281
2 281 282
2 282 283
2 283 284
2 284 285
2 285 286
2 286 287
2 287 288
2 288 289
2 289 290
2 290 291
2 291 292
2 292 293
2 293 294
2 294 295
2 295 296
2 296 297
2 297 298
2 298 299
2 299 300
2 300 301
2 301 302
2 302 303
2 303 304
2 304 305
2 305 306
2 306 307
2 307 308
2 308 309
2 309 310
2 310 311
2 311 312
2 312 313
2 313 314
2 314 315
2 315 316
2 316 317
2 317 318
2 318 319
2 319 320
2 320 321
2 321 322
2 322 323
2 323 324
2 324 325
2 325 326
2 326 327
2 327 328
2 328 329
2 329 330
2 330 331
2 331 332
2 332 333
2 333 334
2 334 335
2 335 336
2 336 337
2 337 338
2 338 339
2 339 340
2 340 341
2 341 342
2 342 343
2 343 344
2 344 345
2 345 346
2 346 347
2 347 348
2 348 349


POINT_DATA 350
SCALARS a FLOAT 1
LOOKUP_TABLE default
0.0005894628
0.0005894628
0.0005894628
0.0005894628
0.0005894628
0.0005894628
0.0005894628
0.0005894628
0.0005894628
0.0005894628
0.0005894628
0.0005894628
0.0005894628
0.0005894628
0.0005894628
0.0005894628
0.0005894628
0.0005894628
0.0005894628
0.0005894628
0.0005894628
0.0005894628
0.0005894628
0.0005894628
0.0005894628
0.0005894628
0.0005894628
0.0005894628
0.0005894628
0.0005894628
0.0005894628
0.0005894628
0.0005894628
0.0005894628
0.0005894628
0.0005894628
0.0005894628
0.0005894628
0.0005894628
0.0005894628
0.0005894628
0.0005894628
0.0005894628
0.0005894628
0.0005894628
0.0005894628
0.0005894628
0.0005894628
0.0005894628
0.0005894628
0.0005894628
0.0005894628
0.0005894628
0.0005894628
0.0005894628
0.0005894628
0.0005894628
0.0005894628
0.0005894628
0.0005894628
0.0005894628
0.0005894628
0.0005894628
0.0005894628
0.0005894628
0.0005894628
0.0005894628
0.0005894628
0.0005894628
0.0005894628
0.0005894628
0.0005894628
0.0005894628
0.0005894628
0.0005894628
0.0005894628
0.0005894628
0.0005894628
0.0005894628
0.0005894628
0.0005894628
0.0005894628
0.0005894628
0.0005894628
0.0005894628
0.0005894628
0.0005894628
0.0005894628
0.0005894628
0.0005894628
0.0005894628
0.0005894628
0.0005894628
0.0005894628
0.0005894628
0.0005894628
0.0005894628
0.0005894628
0.0005894628
0.0005894628
0.0005894628
0.0005894628
0.0005894628
0.0005894628
0.0005894628
0.0005894628
0.0005894628
0.0005894628
0.0005894628
0.0005894628
0.0005894628
0.0005894628
0.0005894628
0.0005894628
0.0005894628
0.0005894628
0.0005894628
0.0005894628
0.0005894628
0.0005894628
0.0005894628
0.0005894628
0.0005894628
0.0005894628
0.0005894628
0.0005894628
0.0005894628
0.0005894628
0.0005894628
0.0005894628
0.0005894628
0.0005894628
0.0005894628
0.0005894628
0.0005894628
0.0005894628
0.0005894628
0.0005894628
0.0005894628
0.0005894628
0.0005894628
0.0005894628
0.0005894628
0.0005894628
0.0005894628
0.0005894628
0.0005894628
0.0005894628
0.0005894628
0.0005894628
0.0005894628
0.0005894628
0.0005894628
0.0005894628
0.0005894628
0.0005894628
0.0005894628
0.0005894628
0.0005894628
0.0005894628
0.0005894628
0.0005894628
0.0005894628
0.0005894628
0.0005894628
0.0005894628
0.0005894628
0.0005894628
0.0005894628
0.0005894628
0.0005894628
0.0005894628
0.0005894628
0.0005894628
0.0005894628
0.0005894628
0.0005894628
0.0005894628
0.0005894628
0.0005894628
0.0005894628
0.0005894628
0.0005894628
0.0005894628
0.0005894628
0.0005894628
0.0005894628
0.0005894628
0.0005894628
0.0005894628
0.0005894628
0.0005894628
0.0005894628
0.0005894628
0.0005894628
0.0005894628
0.0005894628
0.0005894628
0.0005894628
0.0005894628
0.0005894628
0.0005894628
0.0005894628
0.0005894628
0.0005894628
0.0005894628
0.0005894628
0.0005894628
0.0005894628
0.0005894628
0.0005894628
0.0005894628
0.0005894628
0.0005894628
0.0005894628
0.0005894628
0.0005894628
0.0005894628
0.0005894628
0.0005894628
0.0005894628
0.0005894628
0.0005894628
0.0005894628
0.0005894628
0.0005894628
0.0005894628
0.0005894628
0.0005894628
0.0005894628
0.0005894628
0.0005894628
0.0005894628
0.0005894628
0.0005894628
0.0005894628
0.0005894628
0.0005894628
0.0005894628
0.0005894628
0.0005894628
0.0005894628
0.0005894628
0.0005894628
0.0005894628
0.0005894628
0.0005894628
0.0005894628
0.0005894628
0.0005894628
0.0005894628
0.0005894628
0.0005894628
0.0005894628
0.0005894628
0.0005894628
0.0005894628
0.0005894628
0.0005894628
0.0005894628
0.0005894628
0.0005894628
0.0005894628
0.0005894628
0.0005894628
0.0005894628
0.0005894628
0.0005894628
0.0005894628
0.0005894628
0.0005894628
0.0005894628
0.0005894628
0.0005894628
0.0005894628
0.0005894628
0.0005894628
0.0005894628
0.0005894628
0.0005894628
0.0005894628
0.0005894628
0.0005894628
0.0005894628
0.0005894628
0.0005894628
0.0005894628
0.0005894628
0.0005894628
0.0005894628
0.0005894628
0.0005894628
0.0005894628
0.0005894628
0.0005894628
0.0005894628
0.0005894628
0.0005894628
0.0005894628
0.0005894628
0.0005894628
0.0005894628
0.0005894628
0.0005894628
0.0005894628
0.0005894628
0.0005894628
0.0005894628
0.0005894628
0.0005894628
0.0005894628
0.0005894628
0.0005894628
0.0005894628
0.0005894628
0.0005894628
0.0005894628
0.0005894628
0.0005894628
0.0005894628
0.0005894628
0.0005894628
0.0005894628
0.0005894628
0.0005894628
0.0005894628
0.0005894628
0.0005894628
0.0005894628
0.0005894628
0.0005894628
0.0005894628
0.0005894628
0.0005894628
0.0005894628
0.0005894628
0.0005894628
0.0005894628
0.0005894628
0.0005894628
0.0005894628
0.0005894628
0.0005894628
0.0005894628
0.0005894628
0.0005894628
0.0005894628
0.0005894628
0.0005894628
0.0005894628


SCALARS b FLOAT 1
LOOKUP_TABLE default
0.02357851
0.02357851
0.02357851
0.02357851
0.02357851
0.02357851
0.02357851
0.02357851
0.02357851
0.02357851
0.02357851
0.02357851
0.02357851
0.02357851
0.02357851
0.02357851
0.02357851
0.02357851
0.02357851
0.02357851
0.02357851
0.02357851
0.02357851
0.02357851
0.02357851
0.02357851
0.02357851
0.02357851
0.02357851
0.02357851
0.02357851
0.02357851
0.02357851
0.02357851
0.02357851
0.02357851
0.02357851
0.02357851
0.02357851
0.02357851
0.02357851
0.02357851
0.02357851
0.02357851
0.02357851
0.02357851
0.02357851
0.02357851
0.02357851
0.02357851
0.02357851
0.02357851
0.02357851
0.02357851
0.02357851
0.02357851
0.02357851
0.02357851
0.02357851
0.02357851
0.02357851
0.02357851
0.02357851
0.02357851
0.02357851
0.02357851
0.02357851
0.02357851
0.02357851
0.02357851
0.02357851
0.02357851
0.02357851
0.02357851
0.02357851
0.02357851
0.02357851
0.02357851
0.02357851
0.02357851
0.02357851
0.02357851
0.02357851
0.02357851
0.02357851
0.02357851
0.02357851
0.02357851
0.02357851
0.02357851
0.02357851
0.02357851
0.02357851
0.02357851
0.02357851
0.02357851
0.02357851
0.02357851
0.02357851
0.02357851
0.02357851
0.02357851
0.02357851
0.02357851
0.02357851
0.02357851
0.02357851
0.02357851
0.02357851
0.02357851
0.02357851
0.02357851
0.02357851
0.02357851
0.02357851
0.02357851
0.02357851
0.02357851
0.02357851
0.02357851
0.02357851
0.02357851
0.02357851
0.02357851
0.02357851
0.02357851
0.02357851
0.02357851
0.02357851
0.02357851
0.02357851
0.02357851
0.02357851
0.02357851
0.02357851
0.02357851
0.02357851
0.02357851
0.02357851
0.02357851
0.02357851
0.02357851
0.02357851
0.02357851
0.02357851
0.02357851
0.02357851
0.02357851
0.02357851
0.02357851
0.02357851
0.02357851
0.02357851
0.02357851
0.02357851
0.02357851
0.02357851
0.02357851
0.02357851
0.02357851
0.02357851
0.02357851
0.02357851
0.02357851
0.02357851
0.02357851
0.02357851
0.02357851
0.02357851
0.02357851
0.02357851
0.02357851
0.02357851
0.02357851
0.02357851
0.02357851
0.02357851
0.02357851
0.02357851
0.02357851
0.02357851
0.02357851
0.02357851
0.02357851
0.02357851
0.02357851
0.02357851
0.02357851
0.02357851
0.02357851
0.02357851
0.02357851
0.02357851
0.02357851
0.02357851
0.02357851
0.02357851
0.02357851
0.02357851
0.02357851
0.02357851
0.02357851
0.02357851
0.02357851
0.02357851
0.02357851
0.02357851
0.02357851
0.02357851
0.02357851
0.02357851
0.02357851
0.02357851
0.02357851
0.02357851
0.02357851
0.02357851
0.02357851
0.02357851
0.02357851
0.02357851
0.02357851
0.02357851
0.02357851
0.02357851
0.02357851
0.02357851
0.02357851
0.02357851
0.02357851
0.02357851
0.02357851
0.02357851
0.02357851
0.02357851
0.02357851
0.02357851
0.02357851
0.02357851
0.02357851
0.02357851
0.02357851
0.02357851
0.02357851
0.02357851
0.02357851
0.02357851
0.02357851
0.02357851
0.02357851
0.02357851
0.02357851
0.02357851
0.02357851
0.02357851
0.02357851
0.02357851
0.02357851
0.02357851
0.02357851
0.02357851
0.02357851
0.02357851
0.02357851
0.02357851
0.02357851
0.02357851
0.02357851
0.02357851
0.02357851
0.02357851
0.02357851
0.02357851
0.02357851
0.02357851
0.02357851
0.02357851
0.02357851
0.02357851
0.02357851
0.02357851
0.02357851
0.02357851
0.02357851
0.02357851
0.02357851
0.02357851
0.02357851
0.02357851
0.02357851
0.02357851
0.02357851
0.02357851
0.02357851
0.02357851
0.02357851
0.02357851
0.02357851
0.02357851
0.02357851
0.02357851
0.02357851
0.02357851
0.02357851
0.02357851
0.02357851
0.02357851
0.02357851
0.02357851
0.02357851
0.02357851
0.02357851
0.02357851
0.02357851
0.02357851
0.02357851
0.02357851
0.02357851
0.02357851
0.02357851
0.02357851
0.02357851
0.02357851
0.02357851
0.02357851
0.02357851
0.02357851
0.02357851
0.02357851
0.02357851
0.02357851
0.02357851
0.02357851
0.02357851
0.02357851
0.02357851
0.02357851
0.02357851
0.02357851
0.02357851
0.02357851
0.02357851
0.02357851
0.02357851
0.02357851
0.02357851
0.02357851
0.02357851
0.02357851
0.02357851


VECTORS d1 FLOAT
0 0.9917161 -0.1284494
-0.009194069 0.9918929 -0.1267438
-0.01838498 0.9919821 -0.1250341
-0.02757195 0.9919838 -0.1233206
-0.03675416 0.9918981 -0.1216034
-0.04593084 0.991725 -0.1198827
-0.05510118 0.9914648 -0.1181587
-0.06426441 0.9911174 -0.1164317
-0.07341973 0.9906831 -0.1147019
-0.08256636 0.990162 -0.1129694
-0.09170352 0.9895541 -0.1112345
-0.1008304 0.9888597 -0.1094974
-0.1099463 0.9880789 -0.1077583
-0.1190504 0.9872119 -0.1060174
-0.1281419 0.9862588 -0.1042749
-0.1372201 0.9852198 -0.1025309
-0.1462842 0.9840951 -0.1007858
-0.1553334 0.9828849 -0.09903973
-0.164367 0.9815893 -0.09729284
-0.1733842 0.9802087 -0.09554537
-0.1823842 0.9787431 -0.09379752
-0.1913664 0.9771928 -0.0920495
-0.2003299 0.9755581 -0.0903015
-0.2092741 0.9738391 -0.08855373
-0.2181981 0.9720361 -0.08680639
-0.2271013 0.9701494 -0.08505967
-0.2359829 0.9681792 -0.08331379
-0.2448421 0.9661257 -0.08156893
-0.2536783 0.9639892 -0.07982529
-0.2624908 0.96177 -0.07808308
-0.2712787 0.9594684 -0.07634249
-0.2800414 0.9570847 -0.07460372
-0.2887782 0.9546191 -0.07286696
-0.2974884 0.9520719 -0.07113241
-0.3061712 0.9494434 -0.06940026
-0.3148259 0.946734 -0.0676707
-0.323452 0.943944 -0.06594394
-0.3320485 0.9410736 -0.06422015
-0.340615 0.9381233 -0.06249954
-0.3491506 0.9350932 -0.06078229
-0.3576547 0.9319839 -0.05906859
-0.3661266 0.9287956 -0.05735863
-0.3745657 0.9255287 -0.05565261
-0.3829713 0.9221835 -0.0539507
-0.3913426 0.9187603 -0.05225309
-0.3996791 0.9152597 -0.05055997
-0.4079801 0.9116819 -0.04887153
-0.4162449 0.9080272 -0.04718794
-0.4244729 0.9042962 -0.04550939
-0.4326634 0.9004892 -0.04383607
-0.4408158 0.8966065 -0.04216814
-0.4489295 0.8926487 -0.0405058
-0.4570037 0.888616 -0.03884922
-0.465038 0.8845089 -0.03719858
-0.4730316 0.8803278 -0.03555405
-0.480984 0.8760731 -0.03391582
-0.4888945 0.8717453 -0.03228405
-0.4967625 0.8673448 -0.03065892
-0.5045874 0.8628721 -0.02904061
-0.5123686 0.8583275 -0.02742928
-0.5201056 0.8537115 -0.0258251
-0.5277976 0.8490245 -0.02422825
-0.5354442 0.8442671 -0.02263889
-0.5430448 0.8394397 -0.0210572
-0.5505987 0.8345427 -0.01948333
-0.5581054 0.8295766 -0.01791745
-0.5655643 0.8245419 -0.01635972
-0.5729748 0.8194391 -0.01481031
-0.5803365 0.8142687 -0.01326939
-0.5876487 0.809031 -0.0117371
-0.594911 0.8037267 -0.01021361
-0.6021226 0.7983562 -0.008699073
-0.6092832 0.7929201 -0.007193652
-0.6163921 0.7874188 -0.0056975
-0.6234489 0.7818528 -0.004210771
-0.630453 0.7762226 -0.002733617
-0.6374038 0.7705289 -0.001266191
-0.644301 0.764772 0.0001913574
-0.6511439 0.7589525 0.001638879
-0.6579321 0.753071 0.003076225
-0.664665 0.747128 0.004503251
-0.6713422 0.7411239 0.005919809
-0.6779631 0.7350594 0.007325757
-0.6845273 0.728935 0.008720951
-0.6910344 0.7227513 0.01010525
-0.6974837 0.7165087 0.01147851
-0.7038749 0.7102079 0.01284061
-0.7102075 0.7038494 0.01419139
-0.716481 0.6974337 0.01553072
-0.722695 0.6909615 0.01685847
-0.7288489 0.6844333 0.01817451
-0.7349425 0.6778496 0.0194787
-0.7409752 0.6712111 0.02077091
-0.7469466 0.6645183 0.02205102
-0.7528562 0.6577718 0.0233189
-0.7587037 0.6509722 0.02457441
-0.7644885 0.6441201 0.02581744
-0.7702104 0.6372161 0.02704786
-0.7758689 0.6302607 0.02826555
-0.7814636 0.6232545 0.0294704
-0.786994 0.6161982 0.03066227
-0.7924599 0.6090924 0.03184105
-0.7978607 0.6019376 0.03300663
-0.8031961 0.5947345 0.03415889
-0.8084658 0.5874837 0.03529772
-0.8136694 0.5801857 0.036423
-0.8188065 0.5728413 0.03753463
-0.8238767 0.565451 0.0386325
-0.8288796 0.5580154 0.03971649
-0.833815 0.5505352 0.04078651
-0.8386825 0.543011 0.04184245
-0.8434817 0.5354434 0.04288421
-0.8482123 0.527833 0.04391168
-0.8528739 0.5201806 0.04492476
-0.8574663 0.5124867 0.04592336
-0.8619891 0.5047519 0.04690738
-0.866442 0.4969769 0.04787672
-0.8708247 0.4891623 0.0488313
-0.8751369 0.4813089 0.04977101
-0.8793783 0.4734171 0.05069577
-0.8835486 0.4654877 0.05160548
-0.8876474 0.4575214 0.05250007
-0.8916746 0.4495187 0.05337944
-0.8956298 0.4414803 0.05424351
-0.8995128 0.433407 0.0550922
-0.9033232 0.4252993 0.05592542
-0.907061 0.4171578 0.0567431
-0.9107256 0.4089834 0.05754515
-0.914317 0.4007765 0.0583315
-0.9178349 0.3925379 0.05910208
-0.921279 0.3842683 0.05985681
-0.9246491 0.3759683 0.06059561
-0.927945 0.3676386 0.06131843
-0.9311664 0.3592799 0.06202518
-0.9343131 0.3508928 0.0627158
-0.9373849 0.342478 0.06339024
-0.9403817 0.3340361 0.06404841
-0.9433031 0.3255679 0.06469026
-0.946149 0.3170741 0.06531574
-0.9489192 0.3085553 0.06592477
-0.9516135 0.3000121 0.0665173
-0.9542317 0.2914453 0.06709328
-0.9567737 0.2828556 0.06765264
-0.9592392 0.2742436 0.06819535
-0.9616281 0.2656101 0.06872134
-0.9639403 0.2569556 0.06923057
-0.9661756 0.2482809 0.06972299
-0.9683338 0.2395868 0.07019855
-0.9704148 0.2308737 0.0706572
-0.9724184 0.2221426 0.07109891
-0.9743446 0.213394 0.07152363
-0.9761931 0.2046286 0.07193133
-0.9779639 0.1958472 0.07232195
-0.9796568 0.1870504 0.07269548
-0.9812718 0.1782389 0.07305187
-0.9828086 0.1694134 0.07339108
-0.9842673 0.1605747 0.07371309
-0.9856477 0.1517233 0.07401787
-0.9869497 0.1428601 0.07430538
-0.9881732 0.1339856 0.07457561
-0.9893182 0.1251007 0.07482852
-0.9903846 0.1162059 0.07506409
-0.9913722 0.1073021 0.0752823
-0.9922811 0.09838978 0.07548312
-0.9931111 0.0894698 0.07566655
-0.9938623 0.0805428 0.07583256
-0.9945345 0.0716095 0.07598114
-0.9951278 0.06267059 0.07611227
-0.995642 0.05372676 0.07622594
-0.9960772 0.04477873 0.07632214
-0.9964333 0.03582719 0.07640087
-0.9967103 0.02687285 0.0764621
-0.9969081 0.0179164 0.07650585
-0.9970269 0.008958552 0.0765321
-0.9970664 -1.935258e-14 0.07654085
-0.9970269 -0.008958552 0.0765321
-0.9969081 -0.0179164 0.07650585
-0.9967103 -0.02687285 0.0764621
-0.9964333 -0.03582719 0.07640087
-0.9960772 -0.04477873 0.07632214
-0.995642 -0.05372676 0.07622594
-0.9951278 -0.06267059 0.07611227
-0.9945345 -0.0716095 0.07598114
-0.9938623 -0.0805428 0.07583256
-0.9931111 -0.0894698 0.07566655
-0.9922811 -0.09838978 0.07548312
-0.9913722 -0.1073021 0.0752823
-0.9903846 -0.1162059 0.07506409
-0.9893182 -0.1251007 0.07482852
-0.9881732 -0.1339856 0.07457561
-0.9869497 -0.1428601 0.07430538
-0.9856477 -0.1517233 0.07401787
-0.9842673 -0.1605747 0.07371309
-0.9828086 -0.1694134 0.07339108
-0.9812718 -0.1782389 0.07305187
-0.9796568 -0.1870504 0.07269548
-0.9779639 -0.1958472 0.07232195
-0.9761931 -0.2046286 0.07193133
-0.9743446 -0.213394 0.07152363
-0.9724184 -0.2221426 0.07109891
-0.9704148 -0.2308737 0.0706572
-0.9683338 -0.2395868 0.07019855
-0.9661756 -0.2482809 0.06972299
-0.9639403 -0.2569556 0.06923057
-0.9616281 -0.2656101 0.06872134