# vtk DataFile Version 2.0
Written badly by Kevin Korner
ASCII
DATASET POLYDATA
POINTS 350 FLOAT
0 0 0
0.00286533 0 0
0.005730533 2.592495e-05 -7.038016e-06
0.008595359 7.778492e-05 -2.101811e-05
0.01145956 0.0001555872 -4.184411e-05
0.01432287 0.0002593366 -6.941966e-05
0.01718506 0.0003890349 -0.0001036482
0.02004587 0.0005446815 -0.000144433
0.02290505 0.000726273 -0.0001916771
0.02576235 0.0009338033 -0.0002452835
0.02861753 0.001167264 -0.000305155
0.03147033 0.001426643 -0.0003711942
0.03432051 0.001711928 -0.0004433039
0.03716782 0.002023101 -0.0005213863
0.04001202 0.002360143 -0.0006053441
0.04285286 0.002723033 -0.0006950794
0.0456901 0.003111746 -0.0007904945
0.04852348 0.003526255 -0.0008914917
0.05135278 0.003966532 -0.0009979732
0.05417775 0.004432544 -0.001109841
0.05699814 0.004924257 -0.001226998
0.05981372 0.005441633 -0.001349345
0.06262424 0.005984635 -0.001476786
0.06542946 0.006553218 -0.001609222
0.06822915 0.00714734 -0.001746556
0.07102307 0.007766954 -0.001888689
0.07381098 0.008412009 -0.002035525
0.07659265 0.009082456 -0.002186967
0.07936784 0.009778238 -0.002342915
0.08213632 0.0104993 -0.002503274
0.08489785 0.01124559 -0.002667946
0.08765221 0.01201703 -0.002836835
0.09039915 0.01281357 -0.003009843
0.09313846 0.01363514 -0.003186873
0.09586989 0.01448168 -0.003367829
0.09859323 0.0153531 -0.003552616
0.1013082 0.01624935 -0.003741135
0.1040147 0.01717034 -0.003933293
0.1067124 0.018116 -0.004128992
0.1094011 0.01908624 -0.004328137
0.1120806 0.02008099 -0.004530634
0.1147506 0.02110017 -0.004736386
0.117411 0.02214367 -0.0049453
0.1200615 0.02321143 -0.005157281
0.1227018 0.02430335 -0.005372234
0.1253319 0.02541933 -0.005590065
0.1279514 0.02655928 -0.005810682
0.1305602 0.0277231 -0.00603399
0.1331581 0.0289107 -0.006259897
0.1357447 0.03012197 -0.006488309
0.13832 0.03135681 -0.006719136
0.1408836 0.03261512 -0.006952284
0.1434355 0.03389678 -0.007187662
0.1459754 0.0352017 -0.007425178
0.148503 0.03652975 -0.007664743
0.1510182 0.03788083 -0.007906265
0.1535209 0.03925483 -0.008149654
0.1560106 0.04065161 -0.008394821
0.1584874 0.04207107 -0.008641677
0.1609509 0.04351308 -0.008890132
0.163401 0.04497753 -0.009140098
0.1658375 0.04646428 -0.009391488
0.1682602 0.04797322 -0.009644213
0.1706689 0.0495042 -0.009898188
0.1730633 0.05105711 -0.01015332
0.1754434 0.05263182 -0.01040954
0.1778089 0.05422817 -0.01066674
0.1801596 0.05584605 -0.01092485
0.1824954 0.05748532 -0.01118378
0.1848161 0.05914583 -0.01144344
0.1871214 0.06082745 -0.01170376
0.1894112 0.06253003 -0.01196465
0.1916853 0.06425344 -0.01222603
0.1939436 0.06599751 -0.01248781
0.1961858 0.06776212 -0.01274992
0.1984119 0.0695471 -0.01301227
0.2006215 0.07135231 -0.01327479
0.2028145 0.07317759 -0.01353739
0.2049908 0.0750228 -0.01379999
0.2071503 0.07688778 -0.01406252
0.2092926 0.07877236 -0.0143249
0.2114177 0.0806764 -0.01458704
0.2135254 0.08259973 -0.01484889
0.2156155 0.08454219 -0.01511035
0.2176879 0.08650362 -0.01537135
0.2197424 0.08848385 -0.01563182
0.2217788 0.09048273 -0.01589168
0.223797 0.09250007 -0.01615086
0.2257969 0.09453572 -0.01640929
0.2277783 0.0965895 -0.0166669
0.2297409 0.09866125 -0.01692361
0.2316848 0.1007508 -0.01717935
0.2336097 0.1028579 -0.01743405
0.2355154 0.1049825 -0.01768764
0.2374019 0.1071244 -0.01794006
0.239269 0.1092833 -0.01819123
0.2411165 0.1114592 -0.01844109
0.2429444 0.1136517 -0.01868957
0.2447524 0.1158608 -0.01893661
0.2465404 0.1180863 -0.01918213
0.2483083 0.120328 -0.01942608
0.250056 0.1225856 -0.01966839
0.2517833 0.1248591 -0.019909
0.2534902 0.1271482 -0.02014784
0.2551763 0.1294527 -0.02038486
0.2568417 0.1317724 -0.02061999
0.2584863 0.1341072 -0.02085317
0.2601098 0.1364569 -0.02108434
0.2617122 0.1388212 -0.02131345
0.2632933 0.1412 -0.02154043
0.264853 0.1435931 -0.02176523
0.2663913 0.1460002 -0.0219878
0.2679079 0.1484212 -0.02220807
0.2694029 0.1508559 -0.02242599
0.270876 0.1533041 -0.02264151
0.2723271 0.1557656 -0.02285457
0.2737562 0.1582402 -0.02306513
0.2751632 0.1607276 -0.02327313
0.2765478 0.1632277 -0.02347851
0.2779101 0.1657403 -0.02368123
0.27925 0.1682652 -0.02388125
0.2805673 0.1708021 -0.0240785
0.2818619 0.1733509 -0.02427295
0.2831337 0.1759113 -0.02446455
0.2843827 0.1784832 -0.02465325
0.2856087 0.1810663 -0.024839
0.2868117 0.1836604 -0.02502176
0.2879916 0.1862654 -0.02520149
0.2891482 0.1888809 -0.02537815
0.2902816 0.1915069 -0.02555169
0.2913915 0.194143 -0.02572207
0.292478 0.1967891 -0.02588926
0.2935409 0.1994449 -0.0260532
0.2945802 0.2021102 -0.02621387
0.2955958 0.2047849 -0.02637123
0.2965877 0.2074687 -0.02652524
0.2975556 0.2101614 -0.02667586
0.2984997 0.2128627 -0.02682306
0.2994197 0.2155725 -0.02696681
0.3003157 0.2182905 -0.02710707
0.3011875 0.2210166 -0.0272438
0.3020352 0.2237504 -0.02737699
0.3028586 0.2264918 -0.02750659
0.3036577 0.2292406 -0.02763258
0.3044324 0.2319965 -0.02775492
0.3051827 0.2347593 -0.0278736
0.3059085 0.2375288 -0.02798858
0.3066098 0.2403047 -0.02809984
0.3072864 0.2430869 -0.02820735
0.3079385 0.2458752 -0.02831108
0.3085658 0.2486692 -0.02841102
0.3091684 0.2514688 -0.02850714
0.3097463 0.2542737 -0.02859942
0.3102993 0.2570838 -0.02868784
0.3108274 0.2598988 -0.02877238
0.3113307 0.2627184 -0.02885301
0.311809 0.2655425 -0.02892973
0.3122624 0.2683708 -0.02900251
0.3126907 0.2712031 -0.02907133
0.313094 0.2740391 -0.02913619
0.3134723 0.2768787 -0.02919707
0.3138254 0.2797216 -0.02925395
0.3141534 0.2825676 -0.02930682
0.3144563 0.2854165 -0.02935566
0.3147341 0.288268 -0.02940048
0.3149866 0.2911219 -0.02944125
0.315214 0.2939779 -0.02947798
0.3154161 0.2968359 -0.02951064
0.315593 0.2996957 -0.02953924
0.3157446 0.3025569 -0.02956376
0.315871 0.3054193 -0.0295842
0.3159721 0.3082828 -0.02960056
0.316048 0.3111471 -0.02961284
0.3160986 0.314012 -0.02962102
0.3161238 0.3168772 -0.02962511
0.3161238 0.3197426 -0.02962511
0.3160986 0.3226078 -0.02962102
0.316048 0.3254726 -0.02961284
0.3159721 0.3283369 -0.02960056
0.315871 0.3312004 -0.0295842
0.3157446 0.3340629 -0.02956376
0.315593 0.3369241 -0.02953924
0.3154161 0.3397838 -0.02951064
0.315214 0.3426418 -0.02947798
0.3149866 0.3454979 -0.02944125
0.3147341 0.3483518 -0.02940048
0.3144563 0.3512033 -0.02935566
0.3141534 0.3540521 -0.02930682
0.3138254 0.3568981 -0.02925395
0.3134723 0.359741 -0.02919707
0.313094 0.3625806 -0.02913619
0.3126907 0.3654167 -0.02907133
0.3122624 0.368249 -0.02900251
0.311809 0.3710773 -0.02892973
0.3113307 0.3739014 -0.02885301
0.3108274 0.376721 -0.02877238
0.3102993 0.379536 -0.02868784
0.3097463 0.382346 -0.02859942
0.3091684 0.385151 -0.02850714
0.3085658 0.3879506 -0.02841102
0.3079385 0.3907446 -0.02831108
0.3072864 0.3935328 -0.02820735
0.3066098 0.396315 -0.02809984
0.3059085 0.399091 -0.02798858
0.3051827 0.4018605 -0.0278736
0.3044324 0.4046233 -0.02775492
0.3036577 0.4073792 -0.02763258
0.3028586 0.410128 -0.02750659
0.3020352 0.4128694 -0.02737699
0.3011875 0.4156032 -0.0272438
0.3003157 0.4183292 -0.02710707
0.2994197 0.4210473 -0.02696681
0.2984997 0.4237571 -0.02682306
0.2975556 0.4264584 -0.02667586
0.2965877 0.4291511 -0.02652524
0.2955958 0.4318349 -0.02637123
0.2945802 0.4345095 -0.02621387
0.2935409 0.4371749 -0.0260532
0.292478 0.4398307 -0.02588926
0.2913915 0.4424768 -0.02572207
0.2902816 0.4451129 -0.02555169
0.2891482 0.4477388 -0.02537815
0.2879916 0.4503544 -0.02520149
0.2868117 0.4529593 -0.02502176
0.2856087 0.4555535 -0.024839
0.2843827 0.4581366 -0.02465325
0.2831337 0.4607084 -0.02446455
0.2818619 0.4632689 -0.02427295
0.2805673 0.4658177 -0.0240785
0.27925 0.4683546 -0.02388125
0.2779101 0.4708795 -0.02368123
0.2765478 0.473392 -0.02347851
0.2751632 0.4758922 -0.02327313
0.2737562 0.4783796 -0.02306513
0.2723271 0.4808542 -0.02285457
0.270876 0.4833156 -0.02264151
0.2694029 0.4857638 -0.02242599
0.2679079 0.4881985 -0.02220807
0.2663913 0.4906196 -0.0219878
0.264853 0.4930267 -0.02176523
0.2632933 0.4954198 -0.02154043
0.2617122 0.4977986 -0.02131345
0.2601098 0.5001629 -0.02108434
0.2584863 0.5025125 -0.02085317
0.2568417 0.5048473 -0.02061999
0.2551763 0.5071671 -0.02038486
0.2534902 0.5094716 -0.02014784
0.2517833 0.5117607 -0.019909
0.250056 0.5140341 -0.01966839
0.2483083 0.5162918 -0.01942608
0.2465404 0.5185334 -0.01918213
0.2447524 0.5207589 -0.01893661
0.2429444 0.522968 -0.01868957
0.2411165 0.5251606 -0.01844109
0.239269 0.5273365 -0.01819123
0.2374019 0.5294954 -0.01794006
0.2355154 0.5316373 -0.01768764
0.2336097 0.5337618 -0.01743405
0.2316848 0.535869 -0.01717935
0.2297409 0.5379585 -0.01692361
0.2277783 0.5400303 -0.0166669
0.2257969 0.5420841 -0.01640929
0.223797 0.5441197 -0.01615086
0.2217788 0.546137 -0.01589168
0.2197424 0.5481359 -0.01563182
0.2176879 0.5501162 -0.01537135
0.2156155 0.5520776 -0.01511035
0.2135254 0.55402 -0.01484889
0.2114177 0.5559434 -0.01458704
0.2092926 0.5578474 -0.0143249
0.2071503 0.559732 -0.01406252
0.2049908 0.561597 -0.01379999
0.2028145 0.5634422 -0.01353739
0.2006215 0.5652675 -0.01327479
0.1984119 0.5670727 -0.01301227
0.1961858 0.5688577 -0.01274992
0.1939436 0.5706223 -0.01248781
0.1916853 0.5723663 -0.01222603
0.1894112 0.5740897 -0.01196465
0.1871214 0.5757923 -0.01170376
0.1848161 0.5774739 -0.01144344
0.1824954 0.5791345 -0.01118378
0.1801596 0.5807737 -0.01092485
0.1778089 0.5823916 -0.01066674
0.1754434 0.583988 -0.01040954
0.1730633 0.5855627 -0.01015332
0.1706689 0.5871156 -0.009898188
0.1682602 0.5886466 -0.009644213
0.1658375 0.5901555 -0.009391488
0.163401 0.5916422 -0.009140098
0.1609509 0.5931067 -0.008890132
0.1584874 0.5945487 -0.008641677
0.1560106 0.5959682 -0.008394821
0.1535209 0.5973649 -0.008149654
0.1510182 0.5987389 -0.007906265
0.148503 0.60009 -0.007664743
0.1459754 0.6014181 -0.007425178
0.1434355 0.602723 -0.007187662
0.1408836 0.6040047 -0.006952284
0.13832 0.605263 -0.006719136
0.1357447 0.6064978 -0.006488309
0.1331581 0.6077091 -0.006259897
0.1305602 0.6088967 -0.00603399
0.1279514 0.6100605 -0.005810682
0.1253319 0.6112004 -0.005590065
0.1227018 0.6123164 -0.005372234
0.1200615 0.6134083 -0.005157281
0.117411 0.6144761 -0.0049453
0.1147506 0.6155196 -0.004736386
0.1120806 0.6165388 -0.004530634
0.1094011 0.6175335 -0.004328137
0.1067124 0.6185038 -0.004128992
0.1040147 0.6194494 -0.003933293
0.1013082 0.6203704 -0.003741135
0.09859323 0.6212667 -0.003552616
0.09586989 0.6221381 -0.003367829
0.09313846 0.6229846 -0.003186873
0.09039915 0.6238062 -0.003009843
0.08765221 0.6246027 -0.002836835
0.08489785 0.6253742 -0.002667946
0.08213632 0.6261205 -0.002503274
0.07936784 0.6268415 -0.002342915
0.07659265 0.6275373 -0.002186967
0.07381098 0.6282078 -0.002035525
0.07102307 0.6288528 -0.001888689
0.06822915 0.6294724 -0.001746556
0.06542946 0.6300666 -0.001609222
0.06262424 0.6306351 -0.001476786
0.05981372 0.6311781 -0.001349345
0.05699814 0.6316955 -0.001226998
0.05417775 0.6321872 -0.001109841
0.05135278 0.6326532 -0.0009979732
0.04852348 0.6330935 -0.0008914917
0.0456901 0.633508 -0.0007904945
0.04285286 0.6338967 -0.0006950794
0.04001202 0.6342596 -0.0006053441
0.03716782 0.6345967 -0.0005213863
0.03432051 0.6349078 -0.0004433039
0.03147033 0.6351931 -0.0003711942
0.02861753 0.6354525 -0.000305155
0.02576235 0.635686 -0.0002452835
0.02290505 0.6358935 -0.0001916771
0.02004587 0.6360751 -0.000144433
0.01718506 0.6362307 -0.0001036482
0.01432287 0.6363604 -6.941966e-05
0.01145956 0.6364642 -4.184411e-05
0.008595359 0.636542 -2.101811e-05
0.005730533 0.6365938 -7.038016e-06
0.00286533 0.6366198 0
0 0.6366198 0

LINES 349 1047
2 0 1
2 1 2
2 2 3
2 3 4
2 4 5
2 5 6
2 6 7
2 7 8
2 8 9
2 9 10
2 10 11
2 11 12
2 12 13
2 13 14
2 14 15
2 15 16
2 16 17
2 17 18
2 18 19
2 19 20
2 20 21
2 21 22
2 22 23
2 23 24
2 24 25
2 25 26
2 26 27
2 27 28
2 28 29
2 29 30
2 30 31
2 31 32
2 32 33
2 33 34
2 34 35
2 35 36
2 36 37
2 37 38
2 38 39
2 39 40
2 40 41
2 41 42
2 42 43
2 43 44
2 44 45
2 45 46
2 46 47
2 47 48
2 48 49
2 49 50
2 50 51
2 51 52
2 52 53
2 53 54
2 54 55
2 55 56
2 56 57
2 57 58
2 58 59
2 59 60
2 60 61
2 61 62
2 62 63
2 63 64
2 64 65
2 65 66
2 66 67
2 67 68
2 68 69
2 69 70
2 70 71
2 71 72
2 72 73
2 73 74
2 74 75
2 75 76
2 76 77
2 77 78
2 78 79
2 79 80
2 80 81
2 81 82
2 82 83
2 83 84
2 84 85
2 85 86
2 86 87
2 87 88
2 88 89
2 89 90
2 90 91
2 91 92
2 92 93
2 93 94
2 94 95
2 95 96
2 96 97
2 97 98
2 98 99
2 99 100
2 100 101
2 101 102
2 102 103
2 103 104
2 104 105
2 105 106
2 106 107
2 107 108
2 108 109
2 109 110
2 110 111
2 111 112
2 112 113
2 113 114
2 114 115
2 115 116
2 116 117
2 117 118
2 118 119
2 119 120
2 120 121
2 121 122
2 122 123
2 123 124
2 124 125
2 125 126
2 126 127
2 127 128
2 128 129
2 129 130
2 130 131
2 131 132
2 132 133
2 133 134
2 134 135
2 135 136
2 136 137
2 137 138
2 138 139
2 139 140
2 140 141
2 141 142
2 142 143
2 143 144
2 144 145
2 145 146
2 146 147
2 147 148
2 148 149
2 149 150
2 150 151
2 151 152
2 152 153
2 153 154
2 154 155
2 155 156
2 156 157
2 157 158
2 158 159
2 159 160
2 160 161
2 161 162
2 162 163
2 163 164
2 164 165
2 165 166
2 166 167
2 167 168
2 168 169
2 169 170
2 170 171
2 171 172
2 172 173
2 173 174
2 174 175
2 175 176
2 176 177
2 177 178
2 178 179
2 179 180
2 180 181
2 181 182
2 182 183
2 183 184
2 184 185
2 185 186
2 186 187
2 187 188
2 188 189
2 189 190
2 190 191
2 191 192
2 192 193
2 193 194
2 194 195
2 195 196
2 196 197
2 197 198
2 198 199
2 199 200
2 200 201
2 201 202
2 202 203
2 203 204
2 204 205
2 205 206
2 206 207
2 207 208
2 208 209
2 209 210
2 210 211
2 211 212
2 212 213
2 213 214
2 214 215
2 215 216
2 216 217
2 217 218
2 218 219
2 219 220
2 220 221
2 221 222
2 222 223
2 223 224
2 224 225
2 225 226
2 226 227
2 227 228
2 228 229
2 229 230
2 230 231
2 231 232
2 232 233
2 233 234
2 234 235
2 235 236
2 236 237
2 237 238
2 238 239
2 239 240
2 240 241
2 241 242
2 242 243
2 243 244
2 244 245
2 245 246
2 246 247
2 247 248
2 248 249
2 249 250
2 250 251
2 251 252
2 252 253
2 253 254
2 254 255
2 255 256
2 256 257
2 257 258
2 258 259
2 259 260
2 260 261
2 261 262
2 262 263
2 263 264
2 264 265
2 265 266
2 266 267
2 267 268
2 268 269
2 269 270
2 270 271
2 271 272
2 272 273
2 273 274
2 274 275
2 275 276
2 276 277
2 277 278
2 278 279
2 279 280
2 280 281
2 281 282
2 282 283
2 283 284
2 284 285
2 285 286
2 286 287
2 287 288
2 288 289
2 289 290
2 290 291
2 291 292
2 292 293
2 293 294
2 294 295
2 295 296
2 296 297
2 297 298
2 298 299
2 299 300
2 300 301
2 301 302
2 302 303
2 303 304
2 304 305
2 305 306
2 306 307
2 307 308
2 308 309
2 309 310
2 310 311
2 311 312
2 312 313
2 313 314
2 314 315
2 315 316
2 316 317
2 317 318
2 318 319
2 319 320
2 320 321
2 321 322
2 322 323
2 323 324
2 324 325
2 325 326
2 326 327
2 327 328
2 328 329
2 329 330
2 330 331
2 331 332
2 332 333
2 333 334
2 334 335
2 335 336
2 336 337
2 337 338
2 338 339
2 339 340
2 340 341
2 341 342
2 342 343
2 343 344
2 344 345
2 345 346
2 346 347
2 347 348
2 348 349


POINT_DATA 350
SCALARS a FLOAT 1
LOOKUP_TABLE default
0.0005894628
0.0005894628
0.0005894628
0.0005894628
0.0005894628
0.0005894628
0.0005894628
0.0005894628
0.0005894628
0.0005894628
0.0005894628
0.0005894628
0.0005894628
0.0005894628
0.0005894628
0.0005894628
0.0005894628
0.0005894628
0.0005894628
0.0005894628
0.0005894628
0.0005894628
0.0005894628
0.0005894628
0.0005894628
0.0005894628
0.0005894628
0.0005894628
0.0005894628
0.0005894628
0.0005894628
0.0005894628
0.0005894628
0.0005894628
0.0005894628
0.0005894628
0.0005894628
0.0005894628
0.0005894628
0.0005894628
0.0005894628
0.0005894628
0.0005894628
0.0005894628
0.0005894628
0.0005894628
0.0005894628
0.0005894628
0.0005894628
0.0005894628
0.0005894628
0.0005894628
0.0005894628
0.0005894628
0.0005894628
0.0005894628
0.0005894628
0.0005894628
0.0005894628
0.0005894628
0.0005894628
0.0005894628
0.0005894628
0.0005894628
0.0005894628
0.0005894628
0.0005894628
0.0005894628
0.0005894628
0.0005894628
0.0005894628
0.0005894628
0.0005894628
0.0005894628
0.0005894628
0.0005894628
0.0005894628
0.0005894628
0.0005894628
0.0005894628
0.0005894628
0.0005894628
0.0005894628
0.0005894628
0.0005894628
0.0005894628
0.0005894628
0.0005894628
0.0005894628
0.0005894628
0.0005894628
0.0005894628
0.0005894628
0.0005894628
0.0005894628
0.0005894628
0.0005894628
0.0005894628
0.0005894628
0.0005894628
0.0005894628
0.0005894628
0.0005894628
0.0005894628
0.0005894628
0.0005894628
0.0005894628
0.0005894628
0.0005894628
0.0005894628
0.0005894628
0.0005894628
0.0005894628
0.0005894628
0.0005894628
0.0005894628
0.0005894628
0.0005894628
0.0005894628
0.0005894628
0.0005894628
0.0005894628
0.0005894628
0.0005894628
0.0005894628
0.0005894628
0.0005894628
0.0005894628
0.0005894628
0.0005894628
0.0005894628
0.0005894628
0.0005894628
0.0005894628
0.0005894628
0.0005894628
0.0005894628
0.0005894628
0.0005894628
0.0005894628
0.0005894628
0.0005894628
0.0005894628
0.0005894628
0.0005894628
0.0005894628
0.0005894628
0.0005894628
0.0005894628
0.0005894628
0.0005894628
0.0005894628
0.0005894628
0.0005894628
0.0005894628
0.0005894628
0.0005894628
0.0005894628
0.0005894628
0.0005894628
0.0005894628
0.0005894628
0.0005894628
0.0005894628
0.0005894628
0.0005894628
0.0005894628
0.0005894628
0.0005894628
0.0005894628
0.0005894628
0.0005894628
0.0005894628
0.0005894628
0.0005894628
0.0005894628
0.0005894628
0.0005894628
0.0005894628
0.0005894628
0.0005894628
0.0005894628
0.0005894628
0.0005894628
0.0005894628
0.0005894628
0.0005894628
0.0005894628
0.0005894628
0.0005894628
0.0005894628
0.0005894628
0.0005894628
0.0005894628
0.0005894628
0.0005894628
0.0005894628
0.0005894628
0.0005894628
0.0005894628
0.0005894628
0.0005894628
0.0005894628
0.0005894628
0.0005894628
0.0005894628
0.0005894628
0.0005894628
0.0005894628
0.0005894628
0.0005894628
0.0005894628
0.0005894628
0.0005894628
0.0005894628
0.0005894628
0.0005894628
0.0005894628
0.0005894628
0.0005894628
0.0005894628
0.0005894628
0.0005894628
0.0005894628
0.0005894628
0.0005894628
0.0005894628
0.0005894628
0.0005894628
0.0005894628
0.0005894628
0.0005894628
0.0005894628
0.0005894628
0.0005894628
0.0005894628
0.0005894628
0.0005894628
0.0005894628
0.0005894628
0.0005894628
0.0005894628
0.0005894628
0.0005894628
0.0005894628
0.0005894628
0.0005894628
0.0005894628
0.0005894628
0.0005894628
0.0005894628
0.0005894628
0.0005894628
0.0005894628
0.0005894628
0.0005894628
0.0005894628
0.0005894628
0.0005894628
0.0005894628
0.0005894628
0.0005894628
0.0005894628
0.0005894628
0.0005894628
0.0005894628
0.0005894628
0.0005894628
0.0005894628
0.0005894628
0.0005894628
0.0005894628
0.0005894628
0.0005894628
0.0005894628
0.0005894628
0.0005894628
0.0005894628
0.0005894628
0.0005894628
0.0005894628
0.0005894628
0.0005894628
0.0005894628
0.0005894628
0.0005894628
0.0005894628
0.0005894628
0.0005894628
0.0005894628
0.0005894628
0.0005894628
0.0005894628
0.0005894628
0.0005894628
0.0005894628
0.0005894628
0.0005894628
0.0005894628
0.0005894628
0.0005894628
0.0005894628
0.0005894628
0.0005894628
0.0005894628
0.0005894628
0.0005894628
0.0005894628
0.0005894628
0.0005894628
0.0005894628
0.0005894628
0.0005894628
0.0005894628
0.0005894628
0.0005894628
0.0005894628
0.0005894628
0.0005894628
0.0005894628
0.0005894628
0.0005894628
0.0005894628
0.0005894628
0.0005894628
0.0005894628
0.0005894628
0.0005894628
0.0005894628
0.0005894628
0.0005894628
0.0005894628
0.0005894628
0.0005894628
0.0005894628
0.0005894628
0.0005894628
0.0005894628
0.0005894628
0.0005894628
0.0005894628
0.0005894628
0.0005894628
0.0005894628
0.0005894628
0.0005894628
0.0005894628
0.0005894628
0.0005894628
0.0005894628


SCALARS b FLOAT 1
LOOKUP_TABLE default
0.02357851
0.02357851
0.02357851
0.02357851
0.02357851
0.02357851
0.02357851
0.02357851
0.02357851
0.02357851
0.02357851
0.02357851
0.02357851
0.02357851
0.02357851
0.02357851
0.02357851
0.02357851
0.02357851
0.02357851
0.02357851
0.02357851
0.02357851
0.02357851
0.02357851
0.02357851
0.02357851
0.02357851
0.02357851
0.02357851
0.02357851
0.02357851
0.02357851
0.02357851
0.02357851
0.02357851
0.02357851
0.02357851
0.02357851
0.02357851
0.02357851
0.02357851
0.02357851
0.02357851
0.02357851
0.02357851
0.02357851
0.02357851
0.02357851
0.02357851
0.02357851
0.02357851
0.02357851
0.02357851
0.02357851
0.02357851
0.02357851
0.02357851
0.02357851
0.02357851
0.02357851
0.02357851
0.02357851
0.02357851
0.02357851
0.02357851
0.02357851
0.02357851
0.02357851
0.02357851
0.02357851
0.02357851
0.02357851
0.02357851
0.02357851
0.02357851
0.02357851
0.02357851
0.02357851
0.02357851
0.02357851
0.02357851
0.02357851
0.02357851
0.02357851
0.02357851
0.02357851
0.02357851
0.02357851
0.02357851
0.02357851
0.02357851
0.02357851
0.02357851
0.02357851
0.02357851
0.02357851
0.02357851
0.02357851
0.02357851
0.02357851
0.02357851
0.02357851
0.02357851
0.02357851
0.02357851
0.02357851
0.02357851
0.02357851
0.02357851
0.02357851
0.02357851
0.02357851
0.02357851
0.02357851
0.02357851
0.02357851
0.02357851
0.02357851
0.02357851
0.02357851
0.02357851
0.02357851
0.02357851
0.02357851
0.02357851
0.02357851
0.02357851
0.02357851
0.02357851
0.02357851
0.02357851
0.02357851
0.02357851
0.02357851
0.02357851
0.02357851
0.02357851
0.02357851
0.02357851
0.02357851
0.02357851
0.02357851
0.02357851
0.02357851
0.02357851
0.02357851
0.02357851
0.02357851
0.02357851
0.02357851
0.02357851
0.02357851
0.02357851
0.02357851
0.02357851
0.02357851
0.02357851
0.02357851
0.02357851
0.02357851
0.02357851
0.02357851
0.02357851
0.02357851
0.02357851
0.02357851
0.02357851
0.02357851
0.02357851
0.02357851
0.02357851
0.02357851
0.02357851
0.02357851
0.02357851
0.02357851
0.02357851
0.02357851
0.02357851
0.02357851
0.02357851
0.02357851
0.02357851
0.02357851
0.02357851
0.02357851
0.02357851
0.02357851
0.02357851
0.02357851
0.02357851
0.02357851
0.02357851
0.02357851
0.02357851
0.02357851
0.02357851
0.02357851
0.02357851
0.02357851
0.02357851
0.02357851
0.02357851
0.02357851
0.02357851
0.02357851
0.02357851
0.02357851
0.02357851
0.02357851
0.02357851
0.02357851
0.02357851
0.02357851
0.02357851
0.02357851
0.02357851
0.02357851
0.02357851
0.02357851
0.02357851
0.02357851
0.02357851
0.02357851
0.02357851
0.02357851
0.02357851
0.02357851
0.02357851
0.02357851
0.02357851
0.02357851
0.02357851
0.02357851
0.02357851
0.02357851
0.02357851
0.02357851
0.02357851
0.02357851
0.02357851
0.02357851
0.02357851
0.02357851
0.02357851
0.02357851
0.02357851
0.02357851
0.02357851
0.02357851
0.02357851
0.02357851
0.02357851
0.02357851
0.02357851
0.02357851
0.02357851
0.02357851
0.02357851
0.02357851
0.02357851
0.02357851
0.02357851
0.02357851
0.02357851
0.02357851
0.02357851
0.02357851
0.02357851
0.02357851
0.02357851
0.02357851
0.02357851
0.02357851
0.02357851
0.02357851
0.02357851
0.02357851
0.02357851
0.02357851
0.02357851
0.02357851
0.02357851
0.02357851
0.02357851
0.02357851
0.02357851
0.02357851
0.02357851
0.02357851
0.02357851
0.02357851
0.02357851
0.02357851
0.02357851
0.02357851
0.02357851
0.02357851
0.02357851
0.02357851
0.02357851
0.02357851
0.02357851
0.02357851
0.02357851
0.02357851
0.02357851
0.02357851
0.02357851
0.02357851
0.02357851
0.02357851
0.02357851
0.02357851
0.02357851
0.02357851
0.02357851
0.02357851
0.02357851
0.02357851
0.02357851
0.02357851
0.02357851
0.02357851
0.02357851
0.02357851
0.02357851
0.02357851
0.02357851
0.02357851
0.02357851
0.02357851
0.02357851
0.02357851
0.02357851
0.02357851
0.02357851
0.02357851
0.02357851
0.02357851
0.02357851
0.02357851
0.02357851
0.02357851
0.02357851
0.02357851
0.02357851
0.02357851
0.02357851


VECTORS d1 FLOAT
0 0.9645574 -0.263873
-0.009375279 0.9654464 -0.260433
-0.01874512 0.9662346 -0.2569811
-0.02810859 0.9669223 -0.2535177
-0.03746478 0.9675095 -0.2500434
-0.04681274 0.9679966 -0.2465586
-0.05615159 0.9683837 -0.2430639
-0.0654804 0.968671 -0.2395597
-0.07479827 0.9688587 -0.2360466
-0.08410432 0.9689471 -0.2325251
-0.09339764 0.9689365 -0.2289957
-0.1026774 0.968827 -0.2254588
-0.1119426 0.9686189 -0.221915
-0.1211925 0.9683126 -0.2183648
-0.1304262 0.9679082 -0.2148086
-0.1396428 0.9674061 -0.2112469
-0.1488415 0.9668067 -0.2076803
-0.1580214 0.9661101 -0.2041092
-0.1671817 0.9653167 -0.2005341
-0.1763215 0.9644269 -0.1969555
-0.1854401 0.963441 -0.1933739
-0.1945366 0.9623593 -0.1897898
-0.2036103 0.9611821 -0.1862036
-0.2126602 0.9599099 -0.1826158
-0.2216856 0.9585431 -0.179027
-0.2306857 0.9570819 -0.1754375
-0.2396598 0.9555268 -0.1718479
-0.248607 0.9538782 -0.1682586
-0.2575266 0.9521364 -0.1646701
-0.2664178 0.950302 -0.1610829
-0.2752799 0.9483752 -0.1574974
-0.284112 0.9463566 -0.153914
-0.2929136 0.9442465 -0.1503334
-0.3016837 0.9420455 -0.1467558
-0.3104218 0.9397538 -0.1431818
-0.3191271 0.9373721 -0.1396119
-0.3277988 0.9349007 -0.1360464
-0.3364363 0.9323401 -0.1324858
-0.3450388 0.9296909 -0.1289306
-0.3536057 0.9269534 -0.1253812
-0.3621363 0.9241281 -0.121838
-0.3706299 0.9212156 -0.1183016
-0.3790859 0.9182163 -0.1147722
-0.3875035 0.9151308 -0.1112504
-0.3958821 0.9119595 -0.1077366
-0.4042211 0.908703 -0.1042312
-0.4125198 0.9053618 -0.1007347
-0.4207776 0.9019363 -0.09724738
-0.4289939 0.8984272 -0.09376977
-0.437168 0.894835 -0.09030225
-0.4452993 0.8911602 -0.08684524
-0.4533872 0.8874033 -0.08339915
-0.4614312 0.8835649 -0.07996438
-0.4694305 0.8796456 -0.07654135
-0.4773847 0.8756459 -0.07313044
-0.4852932 0.8715664 -0.06973207
-0.4931553 0.8674076 -0.06634661
-0.5009706 0.8631701 -0.06297448
-0.5087384 0.8588545 -0.05961605
-0.5164583 0.8544614 -0.05627171
-0.5241296 0.8499914 -0.05294184
-0.5317518 0.8454449 -0.04962683
-0.5393245 0.8408228 -0.04632705
-0.546847 0.8361254 -0.04304287
-0.5543189 0.8313535 -0.03977467
-0.5617396 0.8265075 -0.0365228
-0.5691087 0.8215883 -0.03328764
-0.5764256 0.8165962 -0.03006954
-0.5836899 0.811532 -0.02686887
-0.590901 0.8063963 -0.02368597
-0.5980586 0.8011896 -0.02052119
-0.6051621 0.7959127 -0.01737488
-0.612211 0.7905661 -0.01424739
-0.619205 0.7851504 -0.01113906
-0.6261435 0.7796663 -0.008050222
-0.6330261 0.7741144 -0.004981211
-0.6398524 0.7684954 -0.001932358
-0.6466219 0.7628099 0.00109601
-0.6533343 0.7570584 0.004103569
-0.659989 0.7512418 0.007089998
-0.6665858 0.7453605 0.01005498
-0.6731241 0.7394153 0.0129982
-0.6796036 0.7334068 0.01591936
-0.6860239 0.7273356 0.01881813
-0.6923846 0.7212025 0.02169423
-0.6986852 0.7150079 0.02454734
-0.7049256 0.7087527 0.02737718
-0.7111052 0.7024375 0.03018345
-0.7172237 0.6960628 0.03296586
-0.7232807 0.6896295 0.03572412
-0.7292759 0.6831381 0.03845795
-0.735209 0.6765893 0.04116707
-0.7410795 0.6699837 0.04385121
-0.7468872 0.6633221 0.04651009
-0.7526318 0.6566051 0.04914344
-0.7583129 0.6498334 0.051751
-0.7639301 0.6430076 0.05433251
-0.7694832 0.6361284 0.0568877
-0.7749719 0.6291965 0.05941632
-0.7803959 0.6222125 0.06191812
-0.7857548 0.6151772 0.06439285
-0.7910484 0.6080912 0.06684026
-0.7962763 0.6009551 0.06926012
-0.8014384 0.5937697 0.07165218
-0.8065343 0.5865356 0.07401622
-0.8115637 0.5792535 0.07635199
-0.8165265 0.5719241 0.07865926
-0.8214222 0.5645481 0.08093783
-0.8262508 0.5571261 0.08318746
-0.8310118 0.5496589 0.08540793
-0.8357051 0.542147 0.08759904
-0.8403304 0.5345913 0.08976056
-0.8448875 0.5269923 0.0918923
-0.8493762 0.5193507 0.09399405
-0.8537962 0.5116673 0.0960656
-0.8581473 0.5039428 0.09810677
-0.8624293 0.4961777 0.1001173
-0.8666419 0.4883728 0.1020972
-0.870785 0.4805288 0.104046
-0.8748584 0.4726463 0.1059637
-0.8788618 0.4647261 0.1078501
-0.8827951 0.4567688 0.1097049
-0.886658 0.4487751 0.1115281
-0.8904504 0.4407457 0.1133195
-0.8941721 0.4326813 0.1150788
-0.8978229 0.4245826 0.1168059
-0.9014027 0.4164502 0.1185007
-0.9049112 0.4082849 0.120163
-0.9083483 0.4000873 0.1217927
-0.9117139 0.3918582 0.1233896
-0.9150077 0.3835981 0.1249535
-0.9182297 0.3753078 0.1264843
-0.9213796 0.3669881 0.1279819
-0.9244574 0.3586394 0.1294461
-0.9274628 0.3502627 0.1308768
-0.9303958 0.3418585 0.1322738
-0.9332563 0.3334275 0.1336371
-0.9360439 0.3249704 0.1349666
-0.9387588 0.3164879 0.136262
-0.9414007 0.3079807 0.1375233
-0.9439694 0.2994495 0.1387503
-0.946465 0.290895 0.139943
-0.9488873 0.2823178 0.1411013
-0.9512361 0.2737187 0.1422249
-0.9535114 0.2650983 0.143314
-0.9557131 0.2564573 0.1443682
-0.957841 0.2477964 0.1453876
-0.9598951 0.2391163 0.1463721
-0.9618753 0.2304177 0.1473215
-0.9637815 0.2217012 0.1482358
-0.9656136 0.2129676 0.1491149
-0.9673715 0.2042175 0.1499587
-0.9690552 0.1954516 0.1507672
-0.9706645 0.1866707 0.1515402
-0.9721995 0.1778753 0.1522777
-0.97366 0.1690662 0.1529797
-0.975046 0.1602441 0.153646
-0.9763574 0.1514097 0.1542767
-0.9775942 0.1425636 0.1548716
-0.9787563 0.1337065 0.1554308
-0.9798436 0.1248391 0.1559541
-0.9808562 0.1159622 0.1564415
-0.9817939 0.1070763 0.1568929
-0.9826568 0.09818218 0.1573084
-0.9834447 0.08928052 0.1576879
-0.9841577 0.08037201 0.1580314
-0.9847958 0.07145733 0.1583388
-0.9853588 0.06253716 0.15861
-0.9858468 0.05361219 0.1588452
-0.9862598 0.04468311 0.1590442
-0.9865977 0.0357506 0.1592071
-0.9868605 0.02681535 0.1593337
-0.9870483 0.01787804 0.1594242
-0.9871609 0.008939365 0.1594785
-0.9871985 -1.910971e-14 0.1594966
-0.9871609 -0.008939365 0.1594785
-0.9870483 -0.01787804 0.1594242
-0.9868605 -0.02681535 0.1593337
-0.9865977 -0.0357506 0.1592071
-0.9862598 -0.04468311 0.1590442
-0.9858468 -0.05361219 0.1588452
-0.9853588 -0.06253716 0.15861
-0.9847958 -0.07145733 0.1583388
-0.9841577 -0.08037201 0.1580314
-0.9834447 -0.08928052 0.1576879
-0.9826568 -0.09818218 0.1573084
-0.9817939 -0.1070763 0.1568929
-0.9808562 -0.1159622 0.1564415
-0.9798436 -0.1248391 0.1559541
-0.9787563 -0.1337065 0.1554308
-0.9775942 -0.1425636 0.1548716
-0.9763574 -0.1514097 0.1542767
-0.975046 -0.1602441 0.153646
-0.97366 -0.1690662 0.1529797
-0.9721995 -0.1778753 0.1522777
-0.9706645 -0.1866707 0.1515402
-0.9690552 -0.1954516 0.1507672
-0.9673715 -0.2042175 0.1499587
-0.9656136 -0.2129676 0.1491149
-0.9637815 -0.2217012 0.1482358
-0.9618753 -0.2304177 0.1473215
-0.9598951 -0.2391163 0.1463721
-0.957841 -0.2477964 0.1453876
-0.9557131 -0.2564573 0.1443682
-0.9535114 -0.2650983 0.143314
-0.9512361 -0.2737187 0.1422249
-0.9488873 -0.2823178 0.1411013
-0.946465 -0.290895 0.139943
-0.9439694 -0.2994495 0.1387503
-0.9414007 -0.3079807 0.1375233
-0.9387588 -0.3164879 0.136262
-0.9360439 -0.3249704 0.1349666