# vtk DataFile Version 2.0
Written badly by Kevin Korner
ASCII
DATASET POLYDATA
POINTS 350 FLOAT
0 0 0
0.00286533 0 0
0.005730534 2.595753e-05 -6.614073e-06
0.008595363 7.788054e-05 -1.975201e-05
0.01145957 0.0001557743 -3.932341e-05
0.0143229 0.0002596415 -6.523768e-05
0.0171851 0.0003894822 -9.740406e-05
0.02004593 0.0005452938 -0.0001357316
0.02290515 0.0007270711 -0.0001801293
0.02576249 0.0009348064 -0.0002305059
0.02861772 0.001168489 -0.0002867701
0.03147059 0.001428107 -0.0003488304
0.03432085 0.001713644 -0.0004165954
0.03716826 0.002025082 -0.0004899734
0.04001257 0.0023624 -0.0005688727
0.04285354 0.002725576 -0.0006532016
0.04569092 0.003114584 -0.0007428683
0.04852448 0.003529396 -0.000837781
0.05135397 0.003969981 -0.0009378477
0.05417914 0.004436307 -0.001042977
0.05699976 0.004928336 -0.001153076
0.05981559 0.005446033 -0.001268054
0.06262638 0.005989356 -0.001387819
0.06543191 0.006558262 -0.001512278
0.06823192 0.007152706 -0.001641341
0.07102619 0.00777264 -0.001774916
0.07381448 0.008418015 -0.00191291
0.07659656 0.009088777 -0.002055232
0.07937218 0.009784873 -0.002201792
0.08214112 0.01050624 -0.002352497
0.08490314 0.01125283 -0.002507257
0.08765802 0.01202457 -0.00266598
0.09040551 0.01282141 -0.002828575
0.0931454 0.01364327 -0.002994952
0.09587745 0.01449008 -0.003165019
0.09860144 0.01536178 -0.003338688
0.1013171 0.01625829 -0.003515866
0.1040243 0.01717953 -0.003696464
0.1067227 0.01812543 -0.003880393
0.1094122 0.01909592 -0.004067562
0.1120925 0.0200909 -0.004257882
0.1147634 0.02111029 -0.004451263
0.1174246 0.022154 -0.004647618
0.120076 0.02322196 -0.004846856
0.1227173 0.02431406 -0.00504889
0.1253484 0.02543022 -0.005253631
0.1279689 0.02657033 -0.005460992
0.1305787 0.02773431 -0.005670884
0.1331776 0.02892206 -0.00588322
0.1357654 0.03013346 -0.006097914
0.1383418 0.03136843 -0.006314879
0.1409067 0.03262685 -0.006534028
0.1434598 0.03390861 -0.006755275
0.1460009 0.03521362 -0.006978534
0.1485298 0.03654175 -0.007203721
0.1510463 0.0378929 -0.00743075
0.1535503 0.03926695 -0.007659536
0.1560414 0.04066378 -0.007889995
0.1585196 0.04208328 -0.008122044
0.1609846 0.04352532 -0.008355599
0.1634362 0.04498978 -0.008590577
0.1658741 0.04647654 -0.008826896
0.1682984 0.04798547 -0.009064472
0.1707086 0.04951645 -0.009303225
0.1731047 0.05106933 -0.009543073
0.1754864 0.052644 -0.009783935
0.1778535 0.05424032 -0.01002573
0.1802059 0.05585815 -0.01026838
0.1825434 0.05749735 -0.0105118
0.1848658 0.0591578 -0.01075592
0.1871729 0.06083934 -0.01100066
0.1894645 0.06254184 -0.01124593
0.1917404 0.06426514 -0.01149167
0.1940005 0.06600912 -0.01173779
0.1962446 0.06777362 -0.01198422
0.1984725 0.06955848 -0.01223087
0.2006841 0.07136357 -0.01247769
0.202879 0.07318873 -0.01272459
0.2050573 0.07503381 -0.01297149
0.2072187 0.07689864 -0.01321833
0.209363 0.07878308 -0.01346502
0.2114901 0.08068697 -0.0137115
0.2135998 0.08261014 -0.0139577
0.215692 0.08455244 -0.01420354
0.2177664 0.08651371 -0.01444896
0.219823 0.08849377 -0.01469387
0.2218615 0.09049247 -0.01493822
0.2238819 0.09250964 -0.01518193
0.2258839 0.09454511 -0.01542494
0.2278673 0.09659871 -0.01566717
0.2298321 0.09867027 -0.01590856
0.2317781 0.1007596 -0.01614904
0.2337052 0.1028666 -0.01638855
0.2356131 0.104991 -0.01662702
0.2375018 0.1071326 -0.01686439
0.239371 0.1092914 -0.01710058
0.2412208 0.111467 -0.01733555
0.2430508 0.1136594 -0.01756922
0.244861 0.1158683 -0.01780153
0.2466512 0.1180936 -0.01803243
0.2484213 0.1203351 -0.01826185
0.2501712 0.1225925 -0.01848972
0.2519007 0.1248658 -0.018716
0.2536097 0.1271547 -0.01894062
0.2552981 0.129459 -0.01916353
0.2569657 0.1317785 -0.01938466
0.2586124 0.1341131 -0.01960396
0.2602381 0.1364626 -0.01982138
0.2618427 0.1388267 -0.02003685
0.2634259 0.1412053 -0.02025033
0.2649878 0.1435982 -0.02046176
0.2665283 0.1460051 -0.02067108
0.268047 0.148426 -0.02087825
0.2695441 0.1508605 -0.02108322
0.2710193 0.1533085 -0.02128592
0.2724726 0.1557698 -0.02148632
0.2739038 0.1582442 -0.02168436
0.2753128 0.1607315 -0.02188
0.2766995 0.1632314 -0.02207318
0.2780639 0.1657439 -0.02226385
0.2794057 0.1682686 -0.02245199
0.280725 0.1708053 -0.02263752
0.2820216 0.173354 -0.02282042
0.2832954 0.1759142 -0.02300064
0.2845463 0.178486 -0.02317813
0.2857743 0.1810689 -0.02335285
0.2869792 0.1836629 -0.02352477
0.2881609 0.1862677 -0.02369383
0.2893194 0.1888832 -0.02386
0.2904546 0.191509 -0.02402324
0.2915663 0.194145 -0.02418351
0.2926546 0.1967909 -0.02434077
0.2937192 0.1994466 -0.02449499
0.2947603 0.2021119 -0.02464613
0.2957775 0.2047864 -0.02479416
0.296771 0.2074701 -0.02493903
0.2977406 0.2101627 -0.02508072
0.2986862 0.2128639 -0.02521919
0.2996078 0.2155736 -0.02535441
0.3005053 0.2182916 -0.02548635
0.3013787 0.2210175 -0.02561498
0.3022278 0.2237513 -0.02574027
0.3030526 0.2264926 -0.02586219
0.3038531 0.2292413 -0.02598071
0.3046291 0.2319972 -0.0260958
0.3053807 0.2347599 -0.02620745
0.3061078 0.2375293 -0.02631561
0.3068103 0.2403052 -0.02642028
0.3074882 0.2430874 -0.02652142
0.3081414 0.2458756 -0.02661901
0.3087698 0.2486696 -0.02671302
0.3093735 0.2514691 -0.02680345
0.3099524 0.254274 -0.02689026
0.3105064 0.257084 -0.02697344
0.3110355 0.259899 -0.02705297
0.3115396 0.2627186 -0.02712883
0.3120188 0.2655426 -0.027201
0.312473 0.2683709 -0.02726947
0.3129021 0.2712032 -0.02733422
0.3133062 0.2740392 -0.02739524
0.3136851 0.2768788 -0.02745251
0.3140389 0.2797217 -0.02750602
0.3143675 0.2825677 -0.02755576
0.314671 0.2854165 -0.02760171
0.3149492 0.288268 -0.02764388
0.3152022 0.2911219 -0.02768224
0.31543 0.293978 -0.02771678
0.3156325 0.296836 -0.02774751
0.3158097 0.2996957 -0.02777442
0.3159616 0.3025569 -0.02779749
0.3160883 0.3054193 -0.02781672
0.3161896 0.3082828 -0.02783211
0.3162656 0.3111471 -0.02784366
0.3163162 0.314012 -0.02785136
0.3163416 0.3168772 -0.02785521
0.3163416 0.3197426 -0.02785521
0.3163162 0.3226078 -0.02785136
0.3162656 0.3254726 -0.02784366
0.3161896 0.3283369 -0.02783211
0.3160883 0.3312004 -0.02781672
0.3159616 0.3340629 -0.02779749
0.3158097 0.3369241 -0.02777442
0.3156325 0.3397838 -0.02774751
0.31543 0.3426418 -0.02771678
0.3152022 0.3454979 -0.02768224
0.3149492 0.3483518 -0.02764388
0.314671 0.3512032 -0.02760171
0.3143675 0.3540521 -0.02755576
0.3140389 0.3568981 -0.02750602
0.3136851 0.359741 -0.02745251
0.3133062 0.3625805 -0.02739524
0.3129021 0.3654166 -0.02733422
0.312473 0.3682489 -0.02726947
0.3120188 0.3710771 -0.027201
0.3115396 0.3739012 -0.02712883
0.3110355 0.3767208 -0.02705297
0.3105064 0.3795357 -0.02697344
0.3099524 0.3823458 -0.02689026
0.3093735 0.3851507 -0.02680345
0.3087698 0.3879502 -0.02671302
0.3081414 0.3907442 -0.02661901
0.3074882 0.3935324 -0.02652142
0.3068103 0.3963145 -0.02642028
0.3061078 0.3990904 -0.02631561
0.3053807 0.4018599 -0.02620745
0.3046291 0.4046226 -0.0260958
0.3038531 0.4073784 -0.02598071
0.3030526 0.4101271 -0.02586219
0.3022278 0.4128685 -0.02574027
0.3013787 0.4156022 -0.02561498
0.3005053 0.4183282 -0.02548635
0.2996078 0.4210461 -0.02535441
0.2986862 0.4237558 -0.02521919
0.2977406 0.4264571 -0.02508072
0.296771 0.4291496 -0.02493903
0.2957775 0.4318333 -0.02479416
0.2947603 0.4345079 -0.02464613
0.2937192 0.4371731 -0.02449499
0.2926546 0.4398289 -0.02434077
0.2915663 0.4424748 -0.02418351
0.2904546 0.4451108 -0.02402324
0.2893194 0.4477366 -0.02386
0.2881609 0.450352 -0.02369383
0.2869792 0.4529568 -0.02352477
0.2857743 0.4555508 -0.02335285
0.2845463 0.4581338 -0.02317813
0.2832954 0.4607055 -0.02300064
0.2820216 0.4632658 -0.02282042
0.280725 0.4658144 -0.02263752
0.2794057 0.4683512 -0.02245199
0.2780639 0.4708759 -0.02226385
0.2766995 0.4733883 -0.02207318
0.2753128 0.4758883 -0.02188
0.2739038 0.4783756 -0.02168436
0.2724726 0.4808499 -0.02148632
0.2710193 0.4833112 -0.02128592
0.2695441 0.4857593 -0.02108322
0.268047 0.4881938 -0.02087825
0.2665283 0.4906146 -0.02067108
0.2649878 0.4930216 -0.02046176
0.2634259 0.4954145 -0.02025033
0.2618427 0.4977931 -0.02003685
0.2602381 0.5001572 -0.01982138
0.2586124 0.5025067 -0.01960396
0.2569657 0.5048413 -0.01938466
0.2552981 0.5071608 -0.01916353
0.2536097 0.5094651 -0.01894062
0.2519007 0.511754 -0.018716
0.2501712 0.5140273 -0.01848972
0.2484213 0.5162847 -0.01826185
0.2466512 0.5185262 -0.01803243
0.244861 0.5207515 -0.01780153
0.2430508 0.5229604 -0.01756922
0.2412208 0.5251528 -0.01733555
0.239371 0.5273284 -0.01710058
0.2375018 0.5294871 -0.01686439
0.2356131 0.5316288 -0.01662702
0.2337052 0.5337532 -0.01638855
0.2317781 0.5358602 -0.01614904
0.2298321 0.5379495 -0.01590856
0.2278673 0.5400211 -0.01566717
0.2258839 0.5420747 -0.01542494
0.2238819 0.5441101 -0.01518193
0.2218615 0.5461273 -0.01493822
0.219823 0.548126 -0.01469387
0.2177664 0.5501061 -0.01444896
0.215692 0.5520673 -0.01420354
0.2135998 0.5540096 -0.0139577
0.2114901 0.5559328 -0.0137115
0.209363 0.5578367 -0.01346502
0.2072187 0.5597211 -0.01321833
0.2050573 0.561586 -0.01297149
0.202879 0.563431 -0.01272459
0.2006841 0.5652562 -0.01247769
0.1984725 0.5670613 -0.01223087
0.1962446 0.5688462 -0.01198422
0.1940005 0.5706107 -0.01173779
0.1917404 0.5723546 -0.01149167
0.1894645 0.5740779 -0.01124593
0.1871729 0.5757804 -0.01100066
0.1848658 0.577462 -0.01075592
0.1825434 0.5791224 -0.0105118
0.1802059 0.5807616 -0.01026838
0.1778535 0.5823795 -0.01002573
0.1754864 0.5839758 -0.009783935
0.1731047 0.5855504 -0.009543073
0.1707086 0.5871033 -0.009303225
0.1682984 0.5886343 -0.009064472
0.1658741 0.5901432 -0.008826896
0.1634362 0.59163 -0.008590577
0.1609846 0.5930945 -0.008355599
0.1585196 0.5945365 -0.008122044
0.1560414 0.595956 -0.007889995
0.1535503 0.5973528 -0.007659536
0.1510463 0.5987269 -0.00743075
0.1485298 0.600078 -0.007203721
0.1460009 0.6014062 -0.006978534
0.1434598 0.6027112 -0.006755275
0.1409067 0.6039929 -0.006534028
0.1383418 0.6052513 -0.006314879
0.1357654 0.6064863 -0.006097914
0.1331776 0.6076977 -0.00588322
0.1305787 0.6088855 -0.005670884
0.1279689 0.6100494 -0.005460992
0.1253484 0.6111896 -0.005253631
0.1227173 0.6123057 -0.00504889
0.120076 0.6133978 -0.004846856
0.1174246 0.6144658 -0.004647618
0.1147634 0.6155095 -0.004451263
0.1120925 0.6165289 -0.004257882
0.1094122 0.6175239 -0.004067562
0.1067227 0.6184943 -0.003880393
0.1040243 0.6194402 -0.003696464
0.1013171 0.6203615 -0.003515866
0.09860144 0.621258 -0.003338688
0.09587745 0.6221297 -0.003165019
0.0931454 0.6229765 -0.002994952
0.09040551 0.6237984 -0.002828575
0.08765802 0.6245952 -0.00266598
0.08490314 0.6253669 -0.002507257
0.08214112 0.6261135 -0.002352497
0.07937218 0.6268349 -0.002201792
0.07659656 0.627531 -0.002055232
0.07381448 0.6282018 -0.00191291
0.07102619 0.6288471 -0.001774916
0.06823192 0.6294671 -0.001641341
0.06543191 0.6300615 -0.001512278
0.06262638 0.6306304 -0.001387819
0.05981559 0.6311737 -0.001268054
0.05699976 0.6316914 -0.001153076
0.05417914 0.6321835 -0.001042977
0.05135397 0.6326498 -0.0009378477
0.04852448 0.6330904 -0.000837781
0.04569092 0.6335052 -0.0007428683
0.04285354 0.6338942 -0.0006532016
0.04001257 0.6342574 -0.0005688727
0.03716826 0.6345947 -0.0004899734
0.03432085 0.6349061 -0.0004165954
0.03147059 0.6351917 -0.0003488304
0.02861772 0.6354513 -0.0002867701
0.02576249 0.635685 -0.0002305059
0.02290515 0.6358927 -0.0001801293
0.02004593 0.6360745 -0.0001357316
0.0171851 0.6362303 -9.740406e-05
0.0143229 0.6363601 -6.523768e-05
0.01145957 0.636464 -3.932341e-05
0.008595363 0.6365419 -1.975201e-05
0.005730534 0.6365938 -6.614073e-06
0.00286533 0.6366198 0
0 0.6366198 0

LINES 349 1047
2 0 1
2 1 2
2 2 3
2 3 4
2 4 5
2 5 6
2 6 7
2 7 8
2 8 9
2 9 10
2 10 11
2 11 12
2 12 13
2 13 14
2 14 15
2 15 16
2 16 17
2 17 18
2 18 19
2 19 20
2 20 21
2 21 22
2 22 23
2 23 24
2 24 25
2 25 26
2 26 27
2 27 28
2 28 29
2 29 30
2 30 31
2 31 32
2 32 33
2 33 34
2 34 35
2 35 36
2 36 37
2 37 38
2 38 39
2 39 40
2 40 41
2 41 42
2 42 43
2 43 44
2 44 45
2 45 46
2 46 47
2 47 48
2 48 49
2 49 50
2 50 51
2 51 52
2 52 53
2 53 54
2 54 55
2 55 56
2 56 57
2 57 58
2 58 59
2 59 60
2 60 61
2 61 62
2 62 63
2 63 64
2 64 65
2 65 66
2 66 67
2 67 68
2 68 69
2 69 70
2 70 71
2 71 72
2 72 73
2 73 74
2 74 75
2 75 76
2 76 77
2 77 78
2 78 79
2 79 80
2 80 81
2 81 82
2 82 83
2 83 84
2 84 85
2 85 86
2 86 87
2 87 88
2 88 89
2 89 90
2 90 91
2 91 92
2 92 93
2 93 94
2 94 95
2 95 96
2 96 97
2 97 98
2 98 99
2 99 100
2 100 101
2 101 102
2 102 103
2 103 104
2 104 105
2 105 106
2 106 107
2 107 108
2 108 109
2 109 110
2 110 111
2 111 112
2 112 113
2 113 114
2 114 115
2 115 116
2 116 117
2 117 118
2 118 119
2 119 120
2 120 121
2 121 122
2 122 123
2 123 124
2 124 125
2 125 126
2 126 127
2 127 128
2 128 129
2 129 130
2 130 131
2 131 132
2 132 133
2 133 134
2 134 135
2 135 136
2 136 137
2 137 138
2 138 139
2 139 140
2 140 141
2 141 142
2 142 143
2 143 144
2 144 145
2 145 146
2 146 147
2 147 148
2 148 149
2 149 150
2 150 151
2 151 152
2 152 153
2 153 154
2 154 155
2 155 156
2 156 157
2 157 158
2 158 159
2 159 160
2 160 161
2 161 162
2 162 163
2 163 164
2 164 165
2 165 166
2 166 167
2 167 168
2 168 169
2 169 170
2 170 171
2 171 172
2 172 173
2 173 174
2 174 175
2 175 176
2 176 177
2 177 178
2 178 179
2 179 180
2 180 181
2 181 182
2 182 183
2 183 184
2 184 185
2 185 186
2 186 187
2 187 188
2 188 189
2 189 190
2 190 191
2 191 192
2 192 193
2 193 194
2 194 195
2 195 196
2 196 197
2 197 198
2 198 199
2 199 200
2 200 201
2 201 202
2 202 203
2 203 204
2 204 205
2 205 206
2 206 207
2 207 208
2 208 209
2 209 210
2 210 211
2 211 212
2 212 213
2 213 214
2 214 215
2 215 216
2 216 217
2 217 218
2 218 219
2 219 220
2 220 221
2 221 222
2 222 223
2 223 224
2 224 225
2 225 226
2 226 227
2 227 228
2 228 229
2 229 230
2 230 231
2 231 232
2 232 233
2 233 234
2 234 235
2 235 236
2 236 237
2 237 238
2 238 239
2 239 240
2 240 241
2 241 242
2 242 243
2 243 244
2 244 245
2 245 246
2 246 247
2 247 248
2 248 249
2 249 250
2 250 251
2 251 252
2 252 253
2 253 254
2 254 255
2 255 256
2 256 257
2 257 258
2 258 259
2 259 260
2 260 261
2 261 262
2 262 263
2 263 264
2 264 265
2 265 266
2 266 267
2 267 268
2 268 269
2 269 270
2 270 271
2 271 272
2 272 273
2 273 274
2 274 275
2 275 276
2 276 277
2 277 278
2 278 279
2 279 280
2 280 281
2 281 282
2 282 283
2 283 284
2 284 285
2 285 286
2 286 287
2 287 288
2 288 289
2 289 290
2 290 291
2 291 292
2 292 293
2 293 294
2 294 295
2 295 296
2 296 297
2 297 298
2 298 299
2 299 300
2 300 301
2 301 302
2 302 303
2 303 304
2 304 305
2 305 306
2 306 307
2 307 308
2 308 309
2 309 310
2 310 311
2 311 312
2 312 313
2 313 314
2 314 315
2 315 316
2 316 317
2 317 318
2 318 319
2 319 320
2 320 321
2 321 322
2 322 323
2 323 324
2 324 325
2 325 326
2 326 327
2 327 328
2 328 329
2 329 330
2 330 331
2 331 332
2 332 333
2 333 334
2 334 335
2 335 336
2 336 337
2 337 338
2 338 339
2 339 340
2 340 341
2 341 342
2 342 343
2 343 344
2 344 345
2 345 346
2 346 347
2 347 348
2 348 349


POINT_DATA 350
SCALARS a FLOAT 1
LOOKUP_TABLE default
0.0005894628
0.0005894628
0.0005894628
0.0005894628
0.0005894628
0.0005894628
0.0005894628
0.0005894628
0.0005894628
0.0005894628
0.0005894628
0.0005894628
0.0005894628
0.0005894628
0.0005894628
0.0005894628
0.0005894628
0.0005894628
0.0005894628
0.0005894628
0.0005894628
0.0005894628
0.0005894628
0.0005894628
0.0005894628
0.0005894628
0.0005894628
0.0005894628
0.0005894628
0.0005894628
0.0005894628
0.0005894628
0.0005894628
0.0005894628
0.0005894628
0.0005894628
0.0005894628
0.0005894628
0.0005894628
0.0005894628
0.0005894628
0.0005894628
0.0005894628
0.0005894628
0.0005894628
0.0005894628
0.0005894628
0.0005894628
0.0005894628
0.0005894628
0.0005894628
0.0005894628
0.0005894628
0.0005894628
0.0005894628
0.0005894628
0.0005894628
0.0005894628
0.0005894628
0.0005894628
0.0005894628
0.0005894628
0.0005894628
0.0005894628
0.0005894628
0.0005894628
0.0005894628
0.0005894628
0.0005894628
0.0005894628
0.0005894628
0.0005894628
0.0005894628
0.0005894628
0.0005894628
0.0005894628
0.0005894628
0.0005894628
0.0005894628
0.0005894628
0.0005894628
0.0005894628
0.0005894628
0.0005894628
0.0005894628
0.0005894628
0.0005894628
0.0005894628
0.0005894628
0.0005894628
0.0005894628
0.0005894628
0.0005894628
0.0005894628
0.0005894628
0.0005894628
0.0005894628
0.0005894628
0.0005894628
0.0005894628
0.0005894628
0.0005894628
0.0005894628
0.0005894628
0.0005894628
0.0005894628
0.0005894628
0.0005894628
0.0005894628
0.0005894628
0.0005894628
0.0005894628
0.0005894628
0.0005894628
0.0005894628
0.0005894628
0.0005894628
0.0005894628
0.0005894628
0.0005894628
0.0005894628
0.0005894628
0.0005894628
0.0005894628
0.0005894628
0.0005894628
0.0005894628
0.0005894628
0.0005894628
0.0005894628
0.0005894628
0.0005894628
0.0005894628
0.0005894628
0.0005894628
0.0005894628
0.0005894628
0.0005894628
0.0005894628
0.0005894628
0.0005894628
0.0005894628
0.0005894628
0.0005894628
0.0005894628
0.0005894628
0.0005894628
0.0005894628
0.0005894628
0.0005894628
0.0005894628
0.0005894628
0.0005894628
0.0005894628
0.0005894628
0.0005894628
0.0005894628
0.0005894628
0.0005894628
0.0005894628
0.0005894628
0.0005894628
0.0005894628
0.0005894628
0.0005894628
0.0005894628
0.0005894628
0.0005894628
0.0005894628
0.0005894628
0.0005894628
0.0005894628
0.0005894628
0.0005894628
0.0005894628
0.0005894628
0.0005894628
0.0005894628
0.0005894628
0.0005894628
0.0005894628
0.0005894628
0.0005894628
0.0005894628
0.0005894628
0.0005894628
0.0005894628
0.0005894628
0.0005894628
0.0005894628
0.0005894628
0.0005894628
0.0005894628
0.0005894628
0.0005894628
0.0005894628
0.0005894628
0.0005894628
0.0005894628
0.0005894628
0.0005894628
0.0005894628
0.0005894628
0.0005894628
0.0005894628
0.0005894628
0.0005894628
0.0005894628
0.0005894628
0.0005894628
0.0005894628
0.0005894628
0.0005894628
0.0005894628
0.0005894628
0.0005894628
0.0005894628
0.0005894628
0.0005894628
0.0005894628
0.0005894628
0.0005894628
0.0005894628
0.0005894628
0.0005894628
0.0005894628
0.0005894628
0.0005894628
0.0005894628
0.0005894628
0.0005894628
0.0005894628
0.0005894628
0.0005894628
0.0005894628
0.0005894628
0.0005894628
0.0005894628
0.0005894628
0.0005894628
0.0005894628
0.0005894628
0.0005894628
0.0005894628
0.0005894628
0.0005894628
0.0005894628
0.0005894628
0.0005894628
0.0005894628
0.0005894628
0.0005894628
0.0005894628
0.0005894628
0.0005894628
0.0005894628
0.0005894628
0.0005894628
0.0005894628
0.0005894628
0.0005894628
0.0005894628
0.0005894628
0.0005894628
0.0005894628
0.0005894628
0.0005894628
0.0005894628
0.0005894628
0.0005894628
0.0005894628
0.0005894628
0.0005894628
0.0005894628
0.0005894628
0.0005894628
0.0005894628
0.0005894628
0.0005894628
0.0005894628
0.0005894628
0.0005894628
0.0005894628
0.0005894628
0.0005894628
0.0005894628
0.0005894628
0.0005894628
0.0005894628
0.0005894628
0.0005894628
0.0005894628
0.0005894628
0.0005894628
0.0005894628
0.0005894628
0.0005894628
0.0005894628
0.0005894628
0.0005894628
0.0005894628
0.0005894628
0.0005894628
0.0005894628
0.0005894628
0.0005894628
0.0005894628
0.0005894628
0.0005894628
0.0005894628
0.0005894628
0.0005894628
0.0005894628
0.0005894628
0.0005894628
0.0005894628
0.0005894628
0.0005894628
0.0005894628
0.0005894628
0.0005894628
0.0005894628
0.0005894628
0.0005894628
0.0005894628
0.0005894628
0.0005894628
0.0005894628
0.0005894628
0.0005894628
0.0005894628
0.0005894628
0.0005894628
0.0005894628
0.0005894628
0.0005894628
0.0005894628
0.0005894628
0.0005894628
0.0005894628
0.0005894628
0.0005894628
0.0005894628
0.0005894628
0.0005894628
0.0005894628
0.0005894628
0.0005894628
0.0005894628
0.0005894628


SCALARS b FLOAT 1
LOOKUP_TABLE default
0.02357851
0.02357851
0.02357851
0.02357851
0.02357851
0.02357851
0.02357851
0.02357851
0.02357851
0.02357851
0.02357851
0.02357851
0.02357851
0.02357851
0.02357851
0.02357851
0.02357851
0.02357851
0.02357851
0.02357851
0.02357851
0.02357851
0.02357851
0.02357851
0.02357851
0.02357851
0.02357851
0.02357851
0.02357851
0.02357851
0.02357851
0.02357851
0.02357851
0.02357851
0.02357851
0.02357851
0.02357851
0.02357851
0.02357851
0.02357851
0.02357851
0.02357851
0.02357851
0.02357851
0.02357851
0.02357851
0.02357851
0.02357851
0.02357851
0.02357851
0.02357851
0.02357851
0.02357851
0.02357851
0.02357851
0.02357851
0.02357851
0.02357851
0.02357851
0.02357851
0.02357851
0.02357851
0.02357851
0.02357851
0.02357851
0.02357851
0.02357851
0.02357851
0.02357851
0.02357851
0.02357851
0.02357851
0.02357851
0.02357851
0.02357851
0.02357851
0.02357851
0.02357851
0.02357851
0.02357851
0.02357851
0.02357851
0.02357851
0.02357851
0.02357851
0.02357851
0.02357851
0.02357851
0.02357851
0.02357851
0.02357851
0.02357851
0.02357851
0.02357851
0.02357851
0.02357851
0.02357851
0.02357851
0.02357851
0.02357851
0.02357851
0.02357851
0.02357851
0.02357851
0.02357851
0.02357851
0.02357851
0.02357851
0.02357851
0.02357851
0.02357851
0.02357851
0.02357851
0.02357851
0.02357851
0.02357851
0.02357851
0.02357851
0.02357851
0.02357851
0.02357851
0.02357851
0.02357851
0.02357851
0.02357851
0.02357851
0.02357851
0.02357851
0.02357851
0.02357851
0.02357851
0.02357851
0.02357851
0.02357851
0.02357851
0.02357851
0.02357851
0.02357851
0.02357851
0.02357851
0.02357851
0.02357851
0.02357851
0.02357851
0.02357851
0.02357851
0.02357851
0.02357851
0.02357851
0.02357851
0.02357851
0.02357851
0.02357851
0.02357851
0.02357851
0.02357851
0.02357851
0.02357851
0.02357851
0.02357851
0.02357851
0.02357851
0.02357851
0.02357851
0.02357851
0.02357851
0.02357851
0.02357851
0.02357851
0.02357851
0.02357851
0.02357851
0.02357851
0.02357851
0.02357851
0.02357851
0.02357851
0.02357851
0.02357851
0.02357851
0.02357851
0.02357851
0.02357851
0.02357851
0.02357851
0.02357851
0.02357851
0.02357851
0.02357851
0.02357851
0.02357851
0.02357851
0.02357851
0.02357851
0.02357851
0.02357851
0.02357851
0.02357851
0.02357851
0.02357851
0.02357851
0.02357851
0.02357851
0.02357851
0.02357851
0.02357851
0.02357851
0.02357851
0.02357851
0.02357851
0.02357851
0.02357851
0.02357851
0.02357851
0.02357851
0.02357851
0.02357851
0.02357851
0.02357851
0.02357851
0.02357851
0.02357851
0.02357851
0.02357851
0.02357851
0.02357851
0.02357851
0.02357851
0.02357851
0.02357851
0.02357851
0.02357851
0.02357851
0.02357851
0.02357851
0.02357851
0.02357851
0.02357851
0.02357851
0.02357851
0.02357851
0.02357851
0.02357851
0.02357851
0.02357851
0.02357851
0.02357851
0.02357851
0.02357851
0.02357851
0.02357851
0.02357851
0.02357851
0.02357851
0.02357851
0.02357851
0.02357851
0.02357851
0.02357851
0.02357851
0.02357851
0.02357851
0.02357851
0.02357851
0.02357851
0.02357851
0.02357851
0.02357851
0.02357851
0.02357851
0.02357851
0.02357851
0.02357851
0.02357851
0.02357851
0.02357851
0.02357851
0.02357851
0.02357851
0.02357851
0.02357851
0.02357851
0.02357851
0.02357851
0.02357851
0.02357851
0.02357851
0.02357851
0.02357851
0.02357851
0.02357851
0.02357851
0.02357851
0.02357851
0.02357851
0.02357851
0.02357851
0.02357851
0.02357851
0.02357851
0.02357851
0.02357851
0.02357851
0.02357851
0.02357851
0.02357851
0.02357851
0.02357851
0.02357851
0.02357851
0.02357851
0.02357851
0.02357851
0.02357851
0.02357851
0.02357851
0.02357851
0.02357851
0.02357851
0.02357851
0.02357851
0.02357851
0.02357851
0.02357851
0.02357851
0.02357851
0.02357851
0.02357851
0.02357851
0.02357851
0.02357851
0.02357851
0.02357851
0.02357851
0.02357851
0.02357851
0.02357851
0.02357851
0.02357851
0.02357851
0.02357851
0.02357851
0.02357851
0.02357851
0.02357851
0.02357851
0.02357851
0.02357851
0.02357851
0.02357851


VECTORS d1 FLOAT
0 0.9685832 -0.2486899
-0.009348628 0.969367 -0.2454389
-0.01869212 0.970052 -0.2421772
-0.02802957 0.9706383 -0.2389052
-0.03736007 0.9711261 -0.2356234
-0.04668272 0.9715156 -0.2323322
-0.05599663 0.9718069 -0.2290321
-0.06530091 0.9720004 -0.2257235
-0.07459468 0.9720961 -0.2224069
-0.08387706 0.9720943 -0.2190829
-0.09314718 0.9719953 -0.2157517
-0.1024042 0.9717992 -0.212414
-0.1116472 0.9715064 -0.2090701
-0.1208753 0.971117 -0.2057206
-0.1300878 0.9706314 -0.2023658
-0.1392837 0.9700498 -0.1990062
-0.1484623 0.9693725 -0.1956423
-0.1576227 0.9685998 -0.1922745
-0.166764 0.9677321 -0.1889033
-0.1758855 0.9667695 -0.1855291
-0.1849863 0.9657125 -0.1821524
-0.1940656 0.9645613 -0.1787736
-0.2031227 0.9633164 -0.1753931
-0.2121567 0.9619779 -0.1720115
-0.2211669 0.9605464 -0.1686291
-0.2301524 0.9590222 -0.1652464
-0.2391125 0.9574055 -0.1618638
-0.2480464 0.9556969 -0.1584818
-0.2569534 0.9538966 -0.1551008
-0.2658327 0.9520051 -0.1517212
-0.2746835 0.9500227 -0.1483434
-0.2835051 0.94795 -0.1449679
-0.2922968 0.9457872 -0.1415952
-0.3010579 0.9435348 -0.1382255
-0.3097875 0.9411932 -0.1348595
-0.3184851 0.9387629 -0.1314973
-0.3271498 0.9362442 -0.1281396
-0.335781 0.9336377 -0.1247867
-0.344378 0.9309438 -0.121439
-0.3529401 0.9281629 -0.1180969
-0.3614665 0.9252956 -0.1147609
-0.3699567 0.9223422 -0.1114313
-0.37841 0.9193032 -0.1081085
-0.3868257 0.9161792 -0.104793
-0.3952031 0.9129706 -0.1014851
-0.4035415 0.9096779 -0.09818531
-0.4118404 0.9063016 -0.09489393
-0.4200992 0.9028422 -0.09161136
-0.428317 0.8993002 -0.08833802
-0.4364935 0.8956762 -0.08507427
-0.4446278 0.8919706 -0.08182051
-0.4527195 0.8881839 -0.07857712
-0.4607678 0.8843168 -0.07534446
-0.4687723 0.8803697 -0.07212293
-0.4767323 0.8763431 -0.06891289
-0.4846473 0.8722377 -0.06571471
-0.4925166 0.8680539 -0.06252876
-0.5003396 0.8637923 -0.05935541
-0.5081159 0.8594535 -0.056195
-0.5158449 0.855038 -0.05304792
-0.523526 0.8505464 -0.0499145
-0.5311586 0.8459792 -0.04679511
-0.5387423 0.841337 -0.04369009
-0.5462764 0.8366204 -0.0405998
-0.5537605 0.83183 -0.03752457
-0.5611941 0.8269664 -0.03446475
-0.5685766 0.82203 -0.03142068
-0.5759075 0.8170217 -0.02839269
-0.5831864 0.8119418 -0.02538111
-0.5904127 0.806791 -0.02238628
-0.5975859 0.80157 -0.01940853
-0.6047056 0.7962792 -0.01644817
-0.6117712 0.7909194 -0.01350553
-0.6187824 0.7854912 -0.01058092
-0.6257387 0.779995 -0.007674669
-0.6326395 0.7744316 -0.004787078
-0.6394845 0.7688016 -0.001918458
-0.6462732 0.7631056 0.0009308848
-0.6530052 0.7573441 0.003760648
-0.6596799 0.7515179 0.006570531
-0.6662971 0.7456276 0.009360237
-0.6728563 0.7396737 0.01212947
-0.6793571 0.733657 0.01487795
-0.685799 0.727578 0.01760538
-0.6921817 0.7214374 0.02031148
-0.6985047 0.7152359 0.02299596
-0.7047677 0.708974 0.02565856
-0.7109703 0.7026524 0.02829899
-0.7171121 0.6962717 0.03091698
-0.7231928 0.6898327 0.03351227
-0.7292119 0.6833359 0.03608458
-0.7351691 0.676782 0.03863367
-0.741064 0.6701716 0.04115926
-0.7468964 0.6635055 0.0436611
-0.7526658 0.6567841 0.04613894
-0.7583719 0.6500083 0.04859253
-0.7640144 0.6431787 0.05102162
-0.7695929 0.6362959 0.05342597
-0.7751072 0.6293605 0.05580535
-0.7805568 0.6223733 0.0581595
-0.7859416 0.6153349 0.0604882
-0.7912611 0.608246 0.06279122
-0.7965151 0.6011072 0.06506833
-0.8017033 0.5939192 0.06731931
-0.8068254 0.5866826 0.06954393
-0.811881 0.5793982 0.07174197
-0.81687 0.5720666 0.07391323
-0.821792 0.5646885 0.07605749
-0.8266469 0.5572645 0.07817454
-0.8314342 0.5497953 0.08026417
-0.8361537 0.5422817 0.08232619
-0.8408052 0.5347241 0.0843604
-0.8453885 0.5271235 0.08636659
-0.8499032 0.5194803 0.08834458
-0.8543492 0.5117953 0.09029418
-0.8587261 0.5040692 0.0922152
-0.8630339 0.4963026 0.09410745
-0.8672722 0.4884963 0.09597076
-0.8714407 0.4806508 0.09780495
-0.8755394 0.472767 0.09960985
-0.879568 0.4648454 0.1013853
-0.8835262 0.4568867 0.1031311
-0.8874139 0.4488916 0.1048471
-0.8912308 0.4408609 0.1065331
-0.8949768 0.4327951 0.1081891
-0.8986517 0.424695 0.1098147
-0.9022553 0.4165612 0.11141
-0.9057873 0.4083945 0.1129746
-0.9092477 0.4001954 0.1145086
-0.9126362 0.3919648 0.1160117
-0.9159527 0.3837033 0.1174838
-0.919197 0.3754115 0.1189247
-0.9223689 0.3670902 0.1203344
-0.9254684 0.3587399 0.1217127
-0.9284951 0.3503616 0.1230594
-0.931449 0.3419557 0.1243746
-0.93433 0.333523 0.1256579
-0.9371378 0.3250642 0.1269094
-0.9398724 0.3165799 0.1281288
-0.9425336 0.3080709 0.1293162
-0.9451213 0.2995378 0.1304713
-0.9476354 0.2909814 0.1315941
-0.9500757 0.2824022 0.1326844
-0.9524421 0.2738011 0.1337423
-0.9547345 0.2651786 0.1347675
-0.9569529 0.2565355 0.13576
-0.959097 0.2478724 0.1367197
-0.9611668 0.2391901 0.1376465
-0.9631621 0.2304892 0.1385403
-0.965083 0.2217704 0.1394011
-0.9669293 0.2130345 0.1402287
-0.9687009 0.204282 0.1410231
-0.9703977 0.1955137 0.1417843
-0.9720196 0.1867302 0.142512
-0.9735666 0.1779323 0.1432064
-0.9750387 0.1691207 0.1438673
-0.9764356 0.160296 0.1444947
-0.9777574 0.1514589 0.1450884
-0.979004 0.1426101 0.1456486
-0.9801754 0.1337503 0.146175
-0.9812714 0.1248801 0.1466677
-0.9822921 0.1160004 0.1471266
-0.9832373 0.1071117 0.1475516
-0.9841071 0.09821472 0.1479428
-0.9849014 0.08931019 0.1483001
-0.9856202 0.08039878 0.1486235
-0.9862633 0.07148118 0.1489129
-0.9868309 0.06255807 0.1491683
-0.9873229 0.05363015 0.1493897
-0.9877392 0.0446981 0.1495771
-0.9880799 0.03576261 0.1497304
-0.9883448 0.02682436 0.1498497
-0.9885341 0.01788406 0.1499349
-0.9886477 0.008942372 0.149986
-0.9886855 1.933176e-14 0.1500031
-0.9886477 -0.008942372 0.149986
-0.9885341 -0.01788406 0.1499349
-0.9883448 -0.02682436 0.1498497
-0.9880799 -0.03576261 0.1497304
-0.9877392 -0.0446981 0.1495771
-0.9873229 -0.05363015 0.1493897
-0.9868309 -0.06255807 0.1491683
-0.9862633 -0.07148118 0.1489129
-0.9856202 -0.08039878 0.1486235
-0.9849014 -0.08931019 0.1483001
-0.9841071 -0.09821472 0.1479428
-0.9832373 -0.1071117 0.1475516
-0.9822921 -0.1160004 0.1471266
-0.9812714 -0.1248801 0.1466677
-0.9801754 -0.1337503 0.146175
-0.979004 -0.1426101 0.1456486
-0.9777574 -0.1514589 0.1450884
-0.9764356 -0.160296 0.1444947
-0.9750387 -0.1691207 0.1438673
-0.9735666 -0.1779323 0.1432064
-0.9720196 -0.1867302 0.142512
-0.9703977 -0.1955137 0.1417843
-0.9687009 -0.204282 0.1410231
-0.9669293 -0.2130345 0.1402287
-0.965083 -0.2217704 0.1394011
-0.9631621 -0.2304892 0.1385403
-0.9611668 -0.2391901 0.1376465
-0.959097 -0.2478724 0.1367197
-0.9569529 -0.2565355 0.13576
-0.9547345 -0.2651786 0.1347675
-0.9524421 -0.2738011 0.1337423
-0.9500757 -0.2824022 0.1326844
-0.9476354 -0.2909814 0.1315941
-0.9451213 -0.2995378 0.1304713
-0.9425336 -0.3080709 0.1293162
-0.9398724 -0.3165799 0.1281288
-0.9371378 -0.3250642 0.1269094