# vtk DataFile Version 2.0
Written badly by Kevin Korner
ASCII
DATASET POLYDATA
POINTS 350 FLOAT
0 0 0
0.00286533 0 0
0.005730487 1.442863e-05 -2.793224e-05
0.008595117 4.389662e-05 -8.392634e-05
0.01145886 8.900926e-05 -0.0001680799
0.01432132 0.0001503654 -0.0002804589
0.01718213 0.0002285563 -0.0004210985
0.02004088 0.0003241651 -0.0005900034
0.02289716 0.0004377654 -0.0007871486
0.02575056 0.0005699209 -0.00101248
0.02860065 0.0007211841 -0.001265915
0.03144699 0.0008920959 -0.001547344
0.03428917 0.001083185 -0.001856628
0.03712672 0.001294966 -0.002193604
0.03995921 0.001527942 -0.002558084
0.04278618 0.001782598 -0.002949852
0.04560719 0.002059409 -0.003368672
0.04842177 0.00235883 -0.003814281
0.05122948 0.002681302 -0.004286396
0.05402986 0.003027251 -0.004784711
0.05682245 0.003397085 -0.005308902
0.0596068 0.003791194 -0.005858622
0.06238246 0.004209953 -0.006433507
0.06514897 0.004653718 -0.007033173
0.06790589 0.005122828 -0.007657221
0.07065278 0.005617603 -0.008305234
0.07338919 0.006138346 -0.00897678
0.0761147 0.006685341 -0.009671413
0.07882887 0.007258856 -0.01038867
0.08153129 0.007859138 -0.01112808
0.08422152 0.008486418 -0.01188917
0.08689918 0.009140908 -0.01267142
0.08956385 0.009822801 -0.01347434
0.09221513 0.01053227 -0.0142974
0.09485265 0.01126949 -0.0151401
0.09747602 0.01203458 -0.01600188
0.1000849 0.01282767 -0.01688222
0.1026789 0.01364887 -0.01778056
0.1052576 0.01449827 -0.01869636
0.1078208 0.01537594 -0.01962906
0.1103681 0.01628194 -0.0205781
0.1128991 0.0172163 -0.02154292
0.1154136 0.01817906 -0.02252295
0.1179113 0.01917022 -0.02351762
0.1203918 0.02018978 -0.02452637
0.1228549 0.02123771 -0.02554862
0.1253004 0.02231398 -0.02658381
0.1277278 0.02341854 -0.02763137
0.1301371 0.02455134 -0.02869073
0.132528 0.02571229 -0.02976132
0.1349002 0.02690131 -0.03084259
0.1372534 0.02811829 -0.03193396
0.1395876 0.02936314 -0.03303488
0.1419025 0.03063571 -0.03414481
0.1441979 0.03193589 -0.03526317
0.1464737 0.03326352 -0.03638945
0.1487296 0.03461845 -0.03752308
0.1509655 0.03600052 -0.03866353
0.1531813 0.03740955 -0.03981028
0.1553768 0.03884536 -0.0409628
0.1575519 0.04030776 -0.04212058
0.1597065 0.04179656 -0.04328309
0.1618404 0.04331154 -0.04444983
0.1639536 0.04485249 -0.04562031
0.1660459 0.0464192 -0.04679404
0.1681174 0.04801144 -0.04797052
0.1701678 0.04962897 -0.04914929
0.1721971 0.05127155 -0.05032987
0.1742053 0.05293895 -0.05151179
0.1761924 0.05463092 -0.05269462
0.1781582 0.0563472 -0.0538779
0.1801027 0.05808754 -0.05506118
0.1820259 0.05985167 -0.05624405
0.1839278 0.06163934 -0.05742608
0.1858083 0.06345027 -0.05860686
0.1876675 0.0652842 -0.05978597
0.1895053 0.06714086 -0.06096302
0.1913217 0.06901996 -0.06213763
0.1931168 0.07092123 -0.0633094
0.1948905 0.0728444 -0.06447797
0.1966428 0.07478918 -0.06564297
0.1983738 0.07675528 -0.06680405
0.2000836 0.07874244 -0.06796084
0.201772 0.08075036 -0.06911302
0.2034392 0.08277876 -0.07026025
0.2050852 0.08482736 -0.07140219
0.20671 0.08689587 -0.07253855
0.2083138 0.088984 -0.07366899
0.2098964 0.09109148 -0.07479322
0.211458 0.09321801 -0.07591095
0.2129987 0.09536331 -0.07702189
0.2145184 0.0975271 -0.07812574
0.2160173 0.0997091 -0.07922225
0.2174954 0.101909 -0.08031114
0.2189528 0.1041266 -0.08139216
0.2203895 0.1063615 -0.08246504
0.2218056 0.1086135 -0.08352954
0.2232012 0.1108823 -0.08458543
0.2245763 0.1131677 -0.08563247
0.2259311 0.1154693 -0.08667042
0.2272656 0.1177869 -0.08769908
0.2285798 0.1201202 -0.08871822
0.2298739 0.1224689 -0.08972763
0.2311479 0.1248328 -0.09072712
0.2324019 0.1272116 -0.09171647
0.233636 0.1296051 -0.09269551
0.2348502 0.1320129 -0.09366403
0.2360447 0.1344349 -0.09462187
0.2372195 0.1368707 -0.09556884
0.2383747 0.1393201 -0.09650478
0.2395104 0.1417829 -0.09742951
0.2406267 0.1442587 -0.09834287
0.2417236 0.1467474 -0.09924471
0.2428012 0.1492487 -0.1001349
0.2438597 0.1517623 -0.1010132
0.244899 0.1542881 -0.1018796
0.2459193 0.1568257 -0.1027338
0.2469206 0.1593749 -0.1035758
0.247903 0.1619355 -0.1044055
0.2488667 0.1645072 -0.1052226
0.2498116 0.1670898 -0.1060271
0.2507379 0.1696831 -0.1068188
0.2516456 0.1722869 -0.1075977
0.2525349 0.1749008 -0.1083636
0.2534057 0.1775248 -0.1091164
0.2542581 0.1801585 -0.109856
0.2550923 0.1828017 -0.1105824
0.2559083 0.1854543 -0.1112953
0.2567061 0.1881159 -0.1119947
0.2574859 0.1907864 -0.1126805
0.2582477 0.1934656 -0.1133527
0.2589916 0.1961532 -0.1140111
0.2597176 0.1988491 -0.1146556
0.2604258 0.201553 -0.1152862
0.2611162 0.2042646 -0.1159028
0.261789 0.2069839 -0.1165053
0.2624442 0.2097106 -0.1170936
0.2630818 0.2124444 -0.1176677
0.263702 0.2151853 -0.1182275
0.2643047 0.2179329 -0.1187729
0.26489 0.2206871 -0.1193038
0.2654579 0.2234477 -0.1198203
0.2660086 0.2262144 -0.1203222
0.2665421 0.2289872 -0.1208094
0.2670584 0.2317657 -0.121282
0.2675576 0.2345498 -0.1217399
0.2680396 0.2373394 -0.1221829
0.2685047 0.2401341 -0.1226111
0.2689527 0.2429338 -0.1230245
0.2693838 0.2457384 -0.1234229
0.269798 0.2485476 -0.1238063
0.2701953 0.2513612 -0.1241748
0.2705758 0.2541791 -0.1245281
0.2709395 0.257001 -0.1248664
0.2712864 0.2598269 -0.1251896
0.2716165 0.2626564 -0.1254975
0.27193 0.2654894 -0.1257903
0.2722268 0.2683258 -0.1260679
0.272507 0.2711653 -0.1263302
0.2727705 0.2740078 -0.1265772
0.2730174 0.276853 -0.1268089
0.2732478 0.2797009 -0.1270252
0.2734616 0.2825511 -0.1272262
0.2736589 0.2854036 -0.1274118
0.2738397 0.2882582 -0.127582
0.274004 0.2911146 -0.1277368
0.2741519 0.2939727 -0.1278762
0.2742832 0.2968324 -0.1280001
0.2743981 0.2996933 -0.1281086
0.2744966 0.3025555 -0.1282015
0.2745787 0.3054186 -0.128279
0.2746443 0.3082825 -0.128341
0.2746935 0.311147 -0.1283876
0.2747263 0.314012 -0.1284186
0.2747427 0.3168772 -0.1284341
0.2747427 0.3197426 -0.1284341
0.2747263 0.3226078 -0.1284186
0.2746935 0.3254728 -0.1283876
0.2746443 0.3283373 -0.128341
0.2745787 0.3312012 -0.128279
0.2744966 0.3340643 -0.1282015
0.2743981 0.3369264 -0.1281086
0.2742832 0.3397874 -0.1280001
0.2741519 0.342647 -0.1278762
0.274004 0.3455052 -0.1277368
0.2738397 0.3483616 -0.127582
0.2736589 0.3512161 -0.1274118
0.2734616 0.3540686 -0.1272262
0.2732478 0.3569189 -0.1270252
0.2730174 0.3597667 -0.1268089
0.2727705 0.362612 -0.1265772
0.272507 0.3654545 -0.1263302
0.2722268 0.368294 -0.1260679
0.27193 0.3711303 -0.1257903
0.2716165 0.3739634 -0.1254975
0.2712864 0.3767929 -0.1251896
0.2709395 0.3796187 -0.1248664
0.2705758 0.3824407 -0.1245281
0.2701953 0.3852586 -0.1241748
0.269798 0.3880722 -0.1238063
0.2693838 0.3908814 -0.1234229
0.2689527 0.393686 -0.1230245
0.2685047 0.3964857 -0.1226111
0.2680396 0.3992804 -0.1221829
0.2675576 0.4020699 -0.1217399
0.2670584 0.4048541 -0.121282
0.2665421 0.4076326 -0.1208094
0.2660086 0.4104053 -0.1203222
0.2654579 0.4131721 -0.1198203
0.26489 0.4159327 -0.1193038
0.2643047 0.4186869 -0.1187729
0.263702 0.4214345 -0.1182275
0.2630818 0.4241753 -0.1176677
0.2624442 0.4269092 -0.1170936
0.261789 0.4296359 -0.1165053
0.2611162 0.4323551 -0.1159028
0.2604258 0.4350668 -0.1152862
0.2597176 0.4377707 -0.1146556
0.2589916 0.4404665 -0.1140111
0.2582477 0.4431541 -0.1133527
0.2574859 0.4458333 -0.1126805
0.2567061 0.4485038 -0.1119947
0.2559083 0.4511655 -0.1112953
0.2550923 0.453818 -0.1105824
0.2542581 0.4564613 -0.109856
0.2534057 0.459095 -0.1091164
0.2525349 0.4617189 -0.1083636
0.2516456 0.4643329 -0.1075977
0.2507379 0.4669366 -0.1068188
0.2498116 0.4695299 -0.1060271
0.2488667 0.4721126 -0.1052226
0.247903 0.4746843 -0.1044055
0.2469206 0.4772449 -0.1035758
0.2459193 0.4797941 -0.1027338
0.244899 0.4823317 -0.1018796
0.2438597 0.4848574 -0.1010132
0.2428012 0.4873711 -0.1001349
0.2417236 0.4898724 -0.09924471
0.2406267 0.4923611 -0.09834287
0.2395104 0.4948369 -0.09742951
0.2383747 0.4972997 -0.09650478
0.2372195 0.4997491 -0.09556884
0.2360447 0.5021849 -0.09462187
0.2348502 0.5046068 -0.09366403
0.233636 0.5070147 -0.09269551
0.2324019 0.5094081 -0.09171647
0.2311479 0.511787 -0.09072712
0.2298739 0.5141509 -0.08972763
0.2285798 0.5164996 -0.08871822
0.2272656 0.5188329 -0.08769908
0.2259311 0.5211505 -0.08667042
0.2245763 0.5234521 -0.08563247
0.2232012 0.5257374 -0.08458543
0.2218056 0.5280062 -0.08352954
0.2203895 0.5302583 -0.08246504
0.2189528 0.5324932 -0.08139216
0.2174954 0.5347107 -0.08031114
0.2160173 0.5369107 -0.07922225
0.2145184 0.5390927 -0.07812574
0.2129987 0.5412565 -0.07702189
0.211458 0.5434018 -0.07591095
0.2098964 0.5455283 -0.07479322
0.2083138 0.5476358 -0.07366899
0.20671 0.5497239 -0.07253855
0.2050852 0.5517924 -0.07140219
0.2034392 0.553841 -0.07026025
0.201772 0.5558694 -0.06911302
0.2000836 0.5578773 -0.06796084
0.1983738 0.5598645 -0.06680405
0.1966428 0.5618306 -0.06564297
0.1948905 0.5637754 -0.06447797
0.1931168 0.5656985 -0.0633094
0.1913217 0.5675998 -0.06213763
0.1895053 0.5694789 -0.06096302
0.1876675 0.5713356 -0.05978597
0.1858083 0.5731695 -0.05860686
0.1839278 0.5749804 -0.05742608
0.1820259 0.5767681 -0.05624405
0.1801027 0.5785322 -0.05506118
0.1781582 0.5802726 -0.0538779
0.1761924 0.5819889 -0.05269462
0.1742053 0.5836808 -0.05151179
0.1721971 0.5853482 -0.05032987
0.1701678 0.5869908 -0.04914929
0.1681174 0.5886083 -0.04797052
0.1660459 0.5902006 -0.04679404
0.1639536 0.5917673 -0.04562031
0.1618404 0.5933082 -0.04444983
0.1597065 0.5948232 -0.04328309
0.1575519 0.596312 -0.04212058
0.1553768 0.5977744 -0.0409628
0.1531813 0.5992102 -0.03981028
0.1509655 0.6006193 -0.03866353
0.1487296 0.6020013 -0.03752308
0.1464737 0.6033563 -0.03638945
0.1441979 0.6046839 -0.03526317
0.1419025 0.6059841 -0.03414481
0.1395876 0.6072566 -0.03303488
0.1372534 0.6085015 -0.03193396
0.1349002 0.6097185 -0.03084259
0.132528 0.6109075 -0.02976132
0.1301371 0.6120684 -0.02869073
0.1277278 0.6132012 -0.02763137
0.1253004 0.6143058 -0.02658381
0.1228549 0.6153821 -0.02554862
0.1203918 0.61643 -0.02452637
0.1179113 0.6174496 -0.02351762
0.1154136 0.6184407 -0.02252295
0.1128991 0.6194035 -0.02154292
0.1103681 0.6203378 -0.0205781
0.1078208 0.6212438 -0.01962906
0.1052576 0.6221215 -0.01869636
0.1026789 0.6229709 -0.01778056
0.1000849 0.6237921 -0.01688222
0.09747602 0.6245852 -0.01600188
0.09485265 0.6253503 -0.0151401
0.09221513 0.6260875 -0.0142974
0.08956385 0.626797 -0.01347434
0.08689918 0.6274789 -0.01267142
0.08422152 0.6281334 -0.01188917
0.08153129 0.6287606 -0.01112808
0.07882887 0.6293609 -0.01038867
0.0761147 0.6299344 -0.009671413
0.07338919 0.6304814 -0.00897678
0.07065278 0.6310022 -0.008305234
0.06790589 0.6314969 -0.007657221
0.06514897 0.6319661 -0.007033173
0.06238246 0.6324098 -0.006433507
0.0596068 0.6328286 -0.005858622
0.05682245 0.6332227 -0.005308902
0.05402986 0.6335925 -0.004784711
0.05122948 0.6339385 -0.004286396
0.04842177 0.6342609 -0.003814281
0.04560719 0.6345604 -0.003368672
0.04278618 0.6348372 -0.002949852
0.03995921 0.6350918 -0.002558084
0.03712672 0.6353248 -0.002193604
0.03428917 0.6355366 -0.001856628
0.03144699 0.6357277 -0.001547344
0.02860065 0.6358986 -0.001265915
0.02575056 0.6360499 -0.00101248
0.02289716 0.636182 -0.0007871486
0.02004088 0.6362956 -0.0005900034
0.01718213 0.6363912 -0.0004210985
0.01432132 0.6364694 -0.0002804589
0.01145886 0.6365308 -0.0001680799
0.008595117 0.6365759 -8.392634e-05
0.005730487 0.6366053 -2.793224e-05
0.00286533 0.6366198 0
0 0.6366198 0

LINES 349 1047
2 0 1
2 1 2
2 2 3
2 3 4
2 4 5
2 5 6
2 6 7
2 7 8
2 8 9
2 9 10
2 10 11
2 11 12
2 12 13
2 13 14
2 14 15
2 15 16
2 16 17
2 17 18
2 18 19
2 19 20
2 20 21
2 21 22
2 22 23
2 23 24
2 24 25
2 25 26
2 26 27
2 27 28
2 28 29
2 29 30
2 30 31
2 31 32
2 32 33
2 33 34
2 34 35
2 35 36
2 36 37
2 37 38
2 38 39
2 39 40
2 40 41
2 41 42
2 42 43
2 43 44
2 44 45
2 45 46
2 46 47
2 47 48
2 48 49
2 49 50
2 50 51
2 51 52
2 52 53
2 53 54
2 54 55
2 55 56
2 56 57
2 57 58
2 58 59
2 59 60
2 60 61
2 61 62
2 62 63
2 63 64
2 64 65
2 65 66
2 66 67
2 67 68
2 68 69
2 69 70
2 70 71
2 71 72
2 72 73
2 73 74
2 74 75
2 75 76
2 76 77
2 77 78
2 78 79
2 79 80
2 80 81
2 81 82
2 82 83
2 83 84
2 84 85
2 85 86
2 86 87
2 87 88
2 88 89
2 89 90
2 90 91
2 91 92
2 92 93
2 93 94
2 94 95
2 95 96
2 96 97
2 97 98
2 98 99
2 99 100
2 100 101
2 101 102
2 102 103
2 103 104
2 104 105
2 105 106
2 106 107
2 107 108
2 108 109
2 109 110
2 110 111
2 111 112
2 112 113
2 113 114
2 114 115
2 115 116
2 116 117
2 117 118
2 118 119
2 119 120
2 120 121
2 121 122
2 122 123
2 123 124
2 124 125
2 125 126
2 126 127
2 127 128
2 128 129
2 129 130
2 130 131
2 131 132
2 132 133
2 133 134
2 134 135
2 135 136
2 136 137
2 137 138
2 138 139
2 139 140
2 140 141
2 141 142
2 142 143
2 143 144
2 144 145
2 145 146
2 146 147
2 147 148
2 148 149
2 149 150
2 150 151
2 151 152
2 152 153
2 153 154
2 154 155
2 155 156
2 156 157
2 157 158
2 158 159
2 159 160
2 160 161
2 161 162
2 162 163
2 163 164
2 164 165
2 165 166
2 166 167
2 167 168
2 168 169
2 169 170
2 170 171
2 171 172
2 172 173
2 173 174
2 174 175
2 175 176
2 176 177
2 177 178
2 178 179
2 179 180
2 180 181
2 181 182
2 182 183
2 183 184
2 184 185
2 185 186
2 186 187
2 187 188
2 188 189
2 189 190
2 190 191
2 191 192
2 192 193
2 193 194
2 194 195
2 195 196
2 196 197
2 197 198
2 198 199
2 199 200
2 200 201
2 201 202
2 202 203
2 203 204
2 204 205
2 205 206
2 206 207
2 207 208
2 208 209
2 209 210
2 210 211
2 211 212
2 212 213
2 213 214
2 214 215
2 215 216
2 216 217
2 217 218
2 218 219
2 219 220
2 220 221
2 221 222
2 222 223
2 223 224
2 224 225
2 225 226
2 226 227
2 227 228
2 228 229
2 229 230
2 230 231
2 231 232
2 232 233
2 233 234
2 234 235
2 235 236
2 236 237
2 237 238
2 238 239
2 239 240
2 240 241
2 241 242
2 242 243
2 243 244
2 244 245
2 245 246
2 246 247
2 247 248
2 248 249
2 249 250
2 250 251
2 251 252
2 252 253
2 253 254
2 254 255
2 255 256
2 256 257
2 257 258
2 258 259
2 259 260
2 260 261
2 261 262
2 262 263
2 263 264
2 264 265
2 265 266
2 266 267
2 267 268
2 268 269
2 269 270
2 270 271
2 271 272
2 272 273
2 273 274
2 274 275
2 275 276
2 276 277
2 277 278
2 278 279
2 279 280
2 280 281
2 281 282
2 282 283
2 283 284
2 284 285
2 285 286
2 286 287
2 287 288
2 288 289
2 289 290
2 290 291
2 291 292
2 292 293
2 293 294
2 294 295
2 295 296
2 296 297
2 297 298
2 298 299
2 299 300
2 300 301
2 301 302
2 302 303
2 303 304
2 304 305
2 305 306
2 306 307
2 307 308
2 308 309
2 309 310
2 310 311
2 311 312
2 312 313
2 313 314
2 314 315
2 315 316
2 316 317
2 317 318
2 318 319
2 319 320
2 320 321
2 321 322
2 322 323
2 323 324
2 324 325
2 325 326
2 326 327
2 327 328
2 328 329
2 329 330
2 330 331
2 331 332
2 332 333
2 333 334
2 334 335
2 335 336
2 336 337
2 337 338
2 338 339
2 339 340
2 340 341
2 341 342
2 342 343
2 343 344
2 344 345
2 345 346
2 346 347
2 347 348
2 348 349


POINT_DATA 350
SCALARS a FLOAT 1
LOOKUP_TABLE default
0.0005894628
0.0005894628
0.0005894628
0.0005894628
0.0005894628
0.0005894628
0.0005894628
0.0005894628
0.0005894628
0.0005894628
0.0005894628
0.0005894628
0.0005894628
0.0005894628
0.0005894628
0.0005894628
0.0005894628
0.0005894628
0.0005894628
0.0005894628
0.0005894628
0.0005894628
0.0005894628
0.0005894628
0.0005894628
0.0005894628
0.0005894628
0.0005894628
0.0005894628
0.0005894628
0.0005894628
0.0005894628
0.0005894628
0.0005894628
0.0005894628
0.0005894628
0.0005894628
0.0005894628
0.0005894628
0.0005894628
0.0005894628
0.0005894628
0.0005894628
0.0005894628
0.0005894628
0.0005894628
0.0005894628
0.0005894628
0.0005894628
0.0005894628
0.0005894628
0.0005894628
0.0005894628
0.0005894628
0.0005894628
0.0005894628
0.0005894628
0.0005894628
0.0005894628
0.0005894628
0.0005894628
0.0005894628
0.0005894628
0.0005894628
0.0005894628
0.0005894628
0.0005894628
0.0005894628
0.0005894628
0.0005894628
0.0005894628
0.0005894628
0.0005894628
0.0005894628
0.0005894628
0.0005894628
0.0005894628
0.0005894628
0.0005894628
0.0005894628
0.0005894628
0.0005894628
0.0005894628
0.0005894628
0.0005894628
0.0005894628
0.0005894628
0.0005894628
0.0005894628
0.0005894628
0.0005894628
0.0005894628
0.0005894628
0.0005894628
0.0005894628
0.0005894628
0.0005894628
0.0005894628
0.0005894628
0.0005894628
0.0005894628
0.0005894628
0.0005894628
0.0005894628
0.0005894628
0.0005894628
0.0005894628
0.0005894628
0.0005894628
0.0005894628
0.0005894628
0.0005894628
0.0005894628
0.0005894628
0.0005894628
0.0005894628
0.0005894628
0.0005894628
0.0005894628
0.0005894628
0.0005894628
0.0005894628
0.0005894628
0.0005894628
0.0005894628
0.0005894628
0.0005894628
0.0005894628
0.0005894628
0.0005894628
0.0005894628
0.0005894628
0.0005894628
0.0005894628
0.0005894628
0.0005894628
0.0005894628
0.0005894628
0.0005894628
0.0005894628
0.0005894628
0.0005894628
0.0005894628
0.0005894628
0.0005894628
0.0005894628
0.0005894628
0.0005894628
0.0005894628
0.0005894628
0.0005894628
0.0005894628
0.0005894628
0.0005894628
0.0005894628
0.0005894628
0.0005894628
0.0005894628
0.0005894628
0.0005894628
0.0005894628
0.0005894628
0.0005894628
0.0005894628
0.0005894628
0.0005894628
0.0005894628
0.0005894628
0.0005894628
0.0005894628
0.0005894628
0.0005894628
0.0005894628
0.0005894628
0.0005894628
0.0005894628
0.0005894628
0.0005894628
0.0005894628
0.0005894628
0.0005894628
0.0005894628
0.0005894628
0.0005894628
0.0005894628
0.0005894628
0.0005894628
0.0005894628
0.0005894628
0.0005894628
0.0005894628
0.0005894628
0.0005894628
0.0005894628
0.0005894628
0.0005894628
0.0005894628
0.0005894628
0.0005894628
0.0005894628
0.0005894628
0.0005894628
0.0005894628
0.0005894628
0.0005894628
0.0005894628
0.0005894628
0.0005894628
0.0005894628
0.0005894628
0.0005894628
0.0005894628
0.0005894628
0.0005894628
0.0005894628
0.0005894628
0.0005894628
0.0005894628
0.0005894628
0.0005894628
0.0005894628
0.0005894628
0.0005894628
0.0005894628
0.0005894628
0.0005894628
0.0005894628
0.0005894628
0.0005894628
0.0005894628
0.0005894628
0.0005894628
0.0005894628
0.0005894628
0.0005894628
0.0005894628
0.0005894628
0.0005894628
0.0005894628
0.0005894628
0.0005894628
0.0005894628
0.0005894628
0.0005894628
0.0005894628
0.0005894628
0.0005894628
0.0005894628
0.0005894628
0.0005894628
0.0005894628
0.0005894628
0.0005894628
0.0005894628
0.0005894628
0.0005894628
0.0005894628
0.0005894628
0.0005894628
0.0005894628
0.0005894628
0.0005894628
0.0005894628
0.0005894628
0.0005894628
0.0005894628
0.0005894628
0.0005894628
0.0005894628
0.0005894628
0.0005894628
0.0005894628
0.0005894628
0.0005894628
0.0005894628
0.0005894628
0.0005894628
0.0005894628
0.0005894628
0.0005894628
0.0005894628
0.0005894628
0.0005894628
0.0005894628
0.0005894628
0.0005894628
0.0005894628
0.0005894628
0.0005894628
0.0005894628
0.0005894628
0.0005894628
0.0005894628
0.0005894628
0.0005894628
0.0005894628
0.0005894628
0.0005894628
0.0005894628
0.0005894628
0.0005894628
0.0005894628
0.0005894628
0.0005894628
0.0005894628
0.0005894628
0.0005894628
0.0005894628
0.0005894628
0.0005894628
0.0005894628
0.0005894628
0.0005894628
0.0005894628
0.0005894628
0.0005894628
0.0005894628
0.0005894628
0.0005894628
0.0005894628
0.0005894628
0.0005894628
0.0005894628
0.0005894628
0.0005894628
0.0005894628
0.0005894628
0.0005894628
0.0005894628
0.0005894628
0.0005894628
0.0005894628
0.0005894628
0.0005894628
0.0005894628
0.0005894628
0.0005894628
0.0005894628
0.0005894628
0.0005894628
0.0005894628
0.0005894628
0.0005894628
0.0005894628
0.0005894628
0.0005894628
0.0005894628
0.0005894628
0.0005894628
0.0005894628


SCALARS b FLOAT 1
LOOKUP_TABLE default
0.02357851
0.02357851
0.02357851
0.02357851
0.02357851
0.02357851
0.02357851
0.02357851
0.02357851
0.02357851
0.02357851
0.02357851
0.02357851
0.02357851
0.02357851
0.02357851
0.02357851
0.02357851
0.02357851
0.02357851
0.02357851
0.02357851
0.02357851
0.02357851
0.02357851
0.02357851
0.02357851
0.02357851
0.02357851
0.02357851
0.02357851
0.02357851
0.02357851
0.02357851
0.02357851
0.02357851
0.02357851
0.02357851
0.02357851
0.02357851
0.02357851
0.02357851
0.02357851
0.02357851
0.02357851
0.02357851
0.02357851
0.02357851
0.02357851
0.02357851
0.02357851
0.02357851
0.02357851
0.02357851
0.02357851
0.02357851
0.02357851
0.02357851
0.02357851
0.02357851
0.02357851
0.02357851
0.02357851
0.02357851
0.02357851
0.02357851
0.02357851
0.02357851
0.02357851
0.02357851
0.02357851
0.02357851
0.02357851
0.02357851
0.02357851
0.02357851
0.02357851
0.02357851
0.02357851
0.02357851
0.02357851
0.02357851
0.02357851
0.02357851
0.02357851
0.02357851
0.02357851
0.02357851
0.02357851
0.02357851
0.02357851
0.02357851
0.02357851
0.02357851
0.02357851
0.02357851
0.02357851
0.02357851
0.02357851
0.02357851
0.02357851
0.02357851
0.02357851
0.02357851
0.02357851
0.02357851
0.02357851
0.02357851
0.02357851
0.02357851
0.02357851
0.02357851
0.02357851
0.02357851
0.02357851
0.02357851
0.02357851
0.02357851
0.02357851
0.02357851
0.02357851
0.02357851
0.02357851
0.02357851
0.02357851
0.02357851
0.02357851
0.02357851
0.02357851
0.02357851
0.02357851
0.02357851
0.02357851
0.02357851
0.02357851
0.02357851
0.02357851
0.02357851
0.02357851
0.02357851
0.02357851
0.02357851
0.02357851
0.02357851
0.02357851
0.02357851
0.02357851
0.02357851
0.02357851
0.02357851
0.02357851
0.02357851
0.02357851
0.02357851
0.02357851
0.02357851
0.02357851
0.02357851
0.02357851
0.02357851
0.02357851
0.02357851
0.02357851
0.02357851
0.02357851
0.02357851
0.02357851
0.02357851
0.02357851
0.02357851
0.02357851
0.02357851
0.02357851
0.02357851
0.02357851
0.02357851
0.02357851
0.02357851
0.02357851
0.02357851
0.02357851
0.02357851
0.02357851
0.02357851
0.02357851
0.02357851
0.02357851
0.02357851
0.02357851
0.02357851
0.02357851
0.02357851
0.02357851
0.02357851
0.02357851
0.02357851
0.02357851
0.02357851
0.02357851
0.02357851
0.02357851
0.02357851
0.02357851
0.02357851
0.02357851
0.02357851
0.02357851
0.02357851
0.02357851
0.02357851
0.02357851
0.02357851
0.02357851
0.02357851
0.02357851
0.02357851
0.02357851
0.02357851
0.02357851
0.02357851
0.02357851
0.02357851
0.02357851
0.02357851
0.02357851
0.02357851
0.02357851
0.02357851
0.02357851
0.02357851
0.02357851
0.02357851
0.02357851
0.02357851
0.02357851
0.02357851
0.02357851
0.02357851
0.02357851
0.02357851
0.02357851
0.02357851
0.02357851
0.02357851
0.02357851
0.02357851
0.02357851
0.02357851
0.02357851
0.02357851
0.02357851
0.02357851
0.02357851
0.02357851
0.02357851
0.02357851
0.02357851
0.02357851
0.02357851
0.02357851
0.02357851
0.02357851
0.02357851
0.02357851
0.02357851
0.02357851
0.02357851
0.02357851
0.02357851
0.02357851
0.02357851
0.02357851
0.02357851
0.02357851
0.02357851
0.02357851
0.02357851
0.02357851
0.02357851
0.02357851
0.02357851
0.02357851
0.02357851
0.02357851
0.02357851
0.02357851
0.02357851
0.02357851
0.02357851
0.02357851
0.02357851
0.02357851
0.02357851
0.02357851
0.02357851
0.02357851
0.02357851
0.02357851
0.02357851
0.02357851
0.02357851
0.02357851
0.02357851
0.02357851
0.02357851
0.02357851
0.02357851
0.02357851
0.02357851
0.02357851
0.02357851
0.02357851
0.02357851
0.02357851
0.02357851
0.02357851
0.02357851
0.02357851
0.02357851
0.02357851
0.02357851
0.02357851
0.02357851
0.02357851
0.02357851
0.02357851
0.02357851
0.02357851
0.02357851
0.02357851
0.02357851
0.02357851
0.02357851
0.02357851
0.02357851
0.02357851
0.02357851
0.02357851
0.02357851
0.02357851
0.02357851
0.02357851
0.02357851
0.02357851
0.02357851
0.02357851
0.02357851
0.02357851
0.02357851
0.02357851


VECTORS d1 FLOAT
0 0.4511891 -0.8924284
-0.01097189 0.4646877 -0.8854067
-0.02208073 0.4779771 -0.8780947
-0.03331579 0.4910504 -0.8704938
-0.04466643 0.5039007 -0.862606
-0.05612207 0.5165212 -0.8544332
-0.06767224 0.5289057 -0.8459783
-0.07930658 0.541048 -0.837244
-0.09101483 0.5529421 -0.8282339
-0.1027868 0.5645825 -0.8189514
-0.1146126 0.5759638 -0.8094008
-0.1264822 0.587081 -0.7995863
-0.1383859 0.5979291 -0.7895126
-0.1503142 0.6085038 -0.7791846
-0.1622576 0.6188009 -0.7686078
-0.1742069 0.6288164 -0.7577875
-0.186153 0.6385468 -0.7467296
-0.1980871 0.6479887 -0.7354401
-0.2100003 0.6571392 -0.7239254
-0.2218843 0.6659956 -0.7121918
-0.2337307 0.6745556 -0.7002461
-0.2455316 0.6828172 -0.6880952
-0.257279 0.6907784 -0.675746
-0.2689653 0.698438 -0.6632058
-0.2805831 0.7057948 -0.6504819
-0.2921254 0.712848 -0.6375818
-0.3035851 0.7195969 -0.6245129
-0.3149556 0.7260414 -0.611283
-0.3262305 0.7321814 -0.5978996
-0.3374037 0.7380173 -0.5843707
-0.3484692 0.7435497 -0.570704
-0.3594213 0.7487793 -0.5569074
-0.3702547 0.7537073 -0.5429887
-0.3809642 0.758335 -0.5289559
-0.3915449 0.762664 -0.5148167
-0.4019923 0.766696 -0.5005791
-0.4123018 0.7704333 -0.4862508
-0.4224694 0.7738779 -0.4718396
-0.4324913 0.7770324 -0.4573532
-0.4423638 0.7798994 -0.4427993
-0.4520835 0.7824817 -0.4281855
-0.4616474 0.7847825 -0.4135193
-0.4710525 0.7868048 -0.398808
-0.4802963 0.788552 -0.3840589
-0.4893763 0.7900276 -0.3692793
-0.4982903 0.7912353 -0.3544763
-0.5070366 0.7921788 -0.3396567
-0.5156132 0.7928621 -0.3248274
-0.5240187 0.793289 -0.3099951
-0.5322519 0.7934638 -0.2951663
-0.5403117 0.7933905 -0.2803475
-0.5481972 0.7930736 -0.2655449
-0.5559077 0.7925173 -0.2507646
-0.5634428 0.7917261 -0.2360126
-0.5708022 0.7907045 -0.2212947
-0.5779857 0.7894569 -0.2066164
-0.5849934 0.787988 -0.1919834
-0.5918256 0.7863024 -0.1774007
-0.5984827 0.7844046 -0.1628737
-0.6049651 0.7822995 -0.1484073
-0.6112736 0.7799916 -0.1340064
-0.6174091 0.7774855 -0.1196754
-0.6233725 0.7747861 -0.105419
-0.6291649 0.771898 -0.09124145
-0.6347876 0.7688257 -0.0771469
-0.6402419 0.7655741 -0.06313934
-0.6455294 0.7621476 -0.0492226
-0.6506515 0.7585509 -0.03540035
-0.6556099 0.7547886 -0.02167609
-0.6604065 0.7508651 -0.008053191
-0.6650431 0.746785 0.005465156
-0.6695217 0.7425526 0.0188759
-0.6738443 0.7381725 0.03217614
-0.678013 0.7336488 0.04536311
-0.6820299 0.728986 0.05843421
-0.6858975 0.7241882 0.07138696
-0.6896178 0.7192596 0.08421903
-0.6931934 0.7142043 0.09692821
-0.6966266 0.7090264 0.1095124
-0.6999198 0.7037298 0.1219698
-0.7030757 0.6983184 0.1342984
-0.7060967 0.692796 0.1464965
-0.7089853 0.6871664 0.1585627
-0.7117443 0.6814333 0.1704954
-0.7143762 0.6756004 0.1822932
-0.7168837 0.669671 0.193955
-0.7192694 0.6636488 0.2054795
-0.7215361 0.657537 0.2168657
-0.7236864 0.651339 0.2281127
-0.7257232 0.6450581 0.2392195
-0.7276489 0.6386973 0.2501855
-0.7294666 0.6322597 0.2610099
-0.7311787 0.6257484 0.2716921
-0.7327881 0.6191662 0.2822317
-0.7342975 0.6125161 0.292628
-0.7357097 0.6058007 0.3028809
-0.7370272 0.5990227 0.3129899
-0.7382529 0.5921848 0.3229548
-0.7393893 0.5852895 0.3327755
-0.7404393 0.5783393 0.3424519
-0.7414054 0.5713366 0.3519838
-0.7422903 0.5642836 0.3613713
-0.7430966 0.5571826 0.3706144
-0.7438269 0.5500358 0.3797132
-0.7444838 0.5428454 0.3886678
-0.7450699 0.5356133 0.3974785
-0.7455877 0.5283415 0.4061455
-0.7460398 0.5210319 0.4146691
-0.7464285 0.5136864 0.4230494
-0.7467564 0.5063067 0.431287
-0.7470259 0.4988946 0.4393821
-0.7472393 0.4914516 0.4473351
-0.7473992 0.4839794 0.4551465
-0.7475077 0.4764796 0.4628168
-0.7475673 0.4689535 0.4703463
-0.7475802 0.4614027 0.4777357
-0.7475487 0.4538284 0.4849854
-0.7474749 0.446232 0.4920959
-0.747361 0.4386147 0.4990678
-0.7472093 0.4309777 0.5059016
-0.7470218 0.4233223 0.512598
-0.7468005 0.4156494 0.5191576
-0.7465476 0.4079601 0.5255808
-0.746265 0.4002556 0.5318684
-0.7459547 0.3925366 0.5380209
-0.7456187 0.3848042 0.544039
-0.7452588 0.3770592 0.5499233
-0.744877 0.3693025 0.5556744
-0.7444749 0.3615348 0.5612929
-0.7440545 0.353757 0.5667794
-0.7436175 0.3459696 0.5721347
-0.7431655 0.3381736 0.5773592
-0.7427003 0.3303694 0.5824537
-0.7422236 0.3225577 0.5874187
-0.7417368 0.314739 0.5922549
-0.7412416 0.306914 0.5969629
-0.7407395 0.2990831 0.6015432
-0.740232 0.2912469 0.6059965
-0.7397206 0.2834058 0.6103234
-0.7392066 0.2755602 0.6145244
-0.7386914 0.2677105 0.6186001
-0.7381764 0.2598572 0.622551
-0.7376629 0.2520005 0.6263778
-0.7371521 0.2441409 0.6300809
-0.7366453 0.2362785 0.6336609
-0.7361436 0.2284138 0.6371183
-0.7356482 0.2205469 0.6404536
-0.7351601 0.2126782 0.6436673
-0.7346805 0.2048078 0.6467598
-0.7342105 0.196936 0.6497317
-0.7337508 0.1890629 0.6525833
-0.7333027 0.1811887 0.6553151
-0.7328668 0.1733137 0.6579275
-0.7324442 0.1654378 0.6604209
-0.7320356 0.1575614 0.6627958
-0.7316419 0.1496843 0.6650524
-0.7312639 0.1418069 0.6671911
-0.7309021 0.1339292 0.6692123
-0.7305574 0.1260511 0.6711162
-0.7302303 0.1181729 0.6729033
-0.7299216 0.1102946 0.6745737
-0.7296316 0.1024162 0.6761277
-0.729361 0.09453781 0.6775656
-0.7291103 0.08665939 0.6788876
-0.7288798 0.07878099 0.6800939
-0.7286701 0.07090263 0.6811848
-0.7284815 0.06302433 0.6821603
-0.7283142 0.0551461 0.6830207
-0.7281687 0.04726793 0.6837661
-0.7280451 0.03938983 0.6843966
-0.7279437 0.03151178 0.6849124
-0.7278647 0.02363379 0.6853134
-0.7278081 0.01575584 0.6855998
-0.7277741 0.00787791 0.6857717
-0.7277628 -6.605827e-15 0.6858289
-0.7277741 -0.00787791 0.6857717
-0.7278081 -0.01575584 0.6855998
-0.7278647 -0.02363379 0.6853134
-0.7279437 -0.03151178 0.6849124
-0.7280451 -0.03938983 0.6843966
-0.7281687 -0.04726793 0.6837661
-0.7283142 -0.0551461 0.6830207
-0.7284815 -0.06302433 0.6821603
-0.7286701 -0.07090263 0.6811848
-0.7288798 -0.07878099 0.6800939
-0.7291103 -0.08665939 0.6788876
-0.729361 -0.09453781 0.6775656
-0.7296316 -0.1024162 0.6761277
-0.7299216 -0.1102946 0.6745737
-0.7302303 -0.1181729 0.6729033
-0.7305574 -0.1260511 0.6711162
-0.7309021 -0.1339292 0.6692123
-0.7312639 -0.1418069 0.6671911
-0.7316419 -0.1496843 0.6650524
-0.7320356 -0.1575614 0.6627958
-0.7324442 -0.1654378 0.6604209
-0.7328668 -0.1733137 0.6579275
-0.7333027 -0.1811887 0.6553151
-0.7337508 -0.1890629 0.6525833
-0.7342105 -0.196936 0.6497317
-0.7346805 -0.2048078 0.6467598
-0.7351601 -0.2126782 0.6436673
-0.7356482 -0.2205469 0.6404536
-0.7361436 -0.2284138 0.6371183
-0.7366453 -0.2362785 0.6336609
-0.7371521 -0.2441409 0.6300809
-0.7376629 -0.2520005 0.6263778
-0.7381764 -0.2598572 0.622551
-0.7386914 -0.2677105 0.6186001
-0.7392066 -0.2755602 0.6145244
-0.7397206 -0.2834058 0.6103234
-0.740232 -0.2912469 0.6059965
-0.7407395 -0.2990831 0.6015432
-0.7412416 -0.306914 0.5969629
-0.7417368 -0.314739 0.5922549
-0.7422236 -0.3225577 0.5874187
-0.7427003 -0.3303694 0.5824537
-0.7431655 -0.3381736 0.5773592
-0.7436175 -0.3459696 0.5721347