# vtk DataFile Version 2.0
Written badly by Kevin Korner
ASCII
DATASET POLYDATA
POINTS 350 FLOAT
0 0 0
0.00286533 0 0
0.005730514 2.471809e-05 1.479973e-05
0.008595265 7.424208e-05 4.420889e-05
0.01145929 0.0001486548 8.803558e-05
0.01432231 0.0002480342 0.0001460864
0.01718403 0.0003724533 0.0002181666
0.02004416 0.0005219802 0.00030408
0.02290243 0.0006966781 0.0004036292
0.02575854 0.0008966056 0.0005166153
0.02861222 0.001121816 0.0006428387
0.03146317 0.001372359 0.0007820983
0.03431113 0.001648278 0.0009341922
0.0371558 0.001949612 0.001098918
0.03999692 0.002276397 0.00127607
0.0428342 0.002628662 0.001465446
0.04566737 0.003006434 0.001666839
0.04849615 0.003409732 0.001880044
0.05132027 0.003838575 0.002104853
0.05413946 0.004292973 0.00234106
0.05695346 0.004772935 0.002588455
0.05976198 0.005278464 0.002846832
0.06256476 0.005809558 0.003115981
0.06536155 0.006366213 0.003395693
0.06815207 0.006948418 0.003685759
0.07093607 0.007556161 0.003985968
0.07371328 0.008189423 0.004296113
0.07648345 0.008848183 0.004615981
0.07924632 0.009532413 0.004945364
0.08200163 0.01024209 0.005284051
0.08474915 0.01097716 0.005631832
0.0874886 0.01173761 0.005988498
0.09021975 0.01252339 0.006353838
0.09294236 0.01333445 0.006727643
0.09565617 0.01417074 0.007109704
0.09836094 0.01503221 0.007499811
0.1010564 0.01591881 0.007897756
0.1037424 0.01683047 0.008303331
0.1064186 0.01776713 0.008716326
0.1090849 0.01872872 0.009136535
0.1117409 0.01971517 0.009563751
0.1143865 0.02072642 0.009997767
0.1170214 0.02176237 0.01043838
0.1196454 0.02282296 0.01088538
0.1222583 0.02390809 0.01133856
0.1248599 0.02501768 0.01179772
0.1274499 0.02615164 0.01226266
0.1300281 0.02730988 0.01273318
0.1325943 0.02849231 0.01320906
0.1351484 0.02969881 0.01369012
0.13769 0.03092929 0.01417615
0.140219 0.03218365 0.01466696
0.1427351 0.03346178 0.01516233
0.1452383 0.03476356 0.01566209
0.1477282 0.03608889 0.01616603
0.1502047 0.03743764 0.01667395
0.1526675 0.03880971 0.01718566
0.1551166 0.04020497 0.01770097
0.1575516 0.04162329 0.01821969
0.1599725 0.04306456 0.01874163
0.1623789 0.04452863 0.01926659
0.1647708 0.04601539 0.01979438
0.1671479 0.0475247 0.02032483
0.1695101 0.04905642 0.02085774
0.1718572 0.05061042 0.02139293
0.174189 0.05218655 0.02193021
0.1765053 0.05378468 0.02246941
0.178806 0.05540466 0.02301034
0.1810909 0.05704635 0.02355282
0.1833598 0.05870959 0.02409667
0.1856126 0.06039424 0.02464172
0.187849 0.06210015 0.0251878
0.190069 0.06382715 0.02573471
0.1922724 0.06557511 0.0262823
0.194459 0.06734385 0.02683039
0.1966287 0.06913322 0.02737882
0.1987813 0.07094306 0.0279274
0.2009167 0.07277321 0.02847598
0.2030346 0.0746235 0.0290244
0.2051351 0.07649377 0.02957247
0.2072178 0.07838384 0.03012005
0.2092828 0.08029355 0.03066697
0.2113297 0.08222274 0.03121308
0.2133586 0.08417122 0.0317582
0.2153693 0.08613882 0.0323022
0.2173616 0.08812538 0.0328449
0.2193353 0.0901307 0.03338617
0.2212905 0.09215462 0.03392584
0.2232269 0.09419696 0.03446377
0.2251444 0.09625753 0.0349998
0.2270429 0.09833616 0.03553379
0.2289222 0.1004327 0.0360656
0.2307823 0.1025468 0.03659507
0.2326231 0.1046785 0.03712208
0.2344443 0.1068275 0.03764647
0.2362459 0.1089937 0.03816811
0.2380279 0.1111767 0.03868685
0.2397899 0.1133766 0.03920258
0.2415321 0.115593 0.03971514
0.2432542 0.1178257 0.0402244
0.2449561 0.1200746 0.04073025
0.2466378 0.1223395 0.04123254
0.2482991 0.1246202 0.04173115
0.2499399 0.1269165 0.04222595
0.2515602 0.1292282 0.04271682
0.2531598 0.1315551 0.04320363
0.2547386 0.133897 0.04368627
0.2562966 0.1362536 0.04416461
0.2578337 0.1386249 0.04463854
0.2593497 0.1410106 0.04510795
0.2608446 0.1434105 0.04557271
0.2623183 0.1458244 0.04603271
0.2637706 0.148252 0.04648785
0.2652016 0.1506933 0.04693801
0.2666112 0.1531479 0.04738309
0.2679991 0.1556157 0.04782298
0.2693655 0.1580965 0.04825758
0.2707101 0.1605901 0.04868678
0.272033 0.1630962 0.04911048
0.2733339 0.1656147 0.04952859
0.274613 0.1681453 0.049941
0.2758701 0.1706879 0.05034763
0.277105 0.1732422 0.05074838
0.2783179 0.175808 0.05114315
0.2795085 0.1783851 0.05153185
0.2806768 0.1809733 0.0519144
0.2818228 0.1835723 0.05229071
0.2829464 0.1861821 0.0526607
0.2840475 0.1888023 0.05302428
0.2851261 0.1914327 0.05338136
0.2861821 0.1940732 0.05373187
0.2872154 0.1967235 0.05407573
0.2882261 0.1993834 0.05441287
0.289214 0.2020527 0.0547432
0.290179 0.2047311 0.05506666
0.2911212 0.2074186 0.05538318
0.2920405 0.2101147 0.05569267
0.2929369 0.2128194 0.05599509
0.2938102 0.2155323 0.05629035
0.2946605 0.2182534 0.0565784
0.2954876 0.2209823 0.05685917
0.2962916 0.2237189 0.0571326
0.2970725 0.226463 0.05739863
0.29783 0.2292142 0.05765721
0.2985644 0.2319724 0.05790828
0.2992754 0.2347374 0.05815178
0.299963 0.237509 0.05838766
0.3006273 0.2402869 0.05861587
0.3012682 0.2430709 0.05883637
0.3018856 0.2458609 0.0590491
0.3024795 0.2486565 0.05925402
0.3030499 0.2514575 0.05945108
0.3035967 0.2542638 0.05964025
0.30412 0.2570751 0.05982148
0.3046197 0.2598912 0.05999474
0.3050958 0.2627119 0.06015999
0.3055482 0.2655369 0.06031719
0.3059769 0.2683661 0.06046631
0.3063819 0.2711991 0.06060732
0.3067632 0.2740358 0.06074019
0.3071208 0.276876 0.06086489
0.3074546 0.2797195 0.0609814
0.3077647 0.2825659 0.06108969
0.308051 0.2854152 0.06118973
0.3083134 0.288267 0.06128151
0.3085521 0.2911211 0.06136501
0.3087669 0.2939774 0.06144021
0.3089578 0.2968356 0.06150709
0.309125 0.2996954 0.06156565
0.3092682 0.3025567 0.06161586
0.3093876 0.3054193 0.06165771
0.3094831 0.3082828 0.06169121
0.3095548 0.3111471 0.06171634
0.3096026 0.314012 0.0617331
0.3096264 0.3168772 0.06174148
0.3096264 0.3197426 0.06174148
0.3096026 0.3226078 0.0617331
0.3095548 0.3254727 0.06171634
0.3094831 0.328337 0.06169121
0.3093876 0.3312005 0.06165771
0.3092682 0.3340631 0.06161586
0.309125 0.3369244 0.06156565
0.3089578 0.3397842 0.06150709
0.3087669 0.3426424 0.06144021
0.3085521 0.3454987 0.06136501
0.3083134 0.3483528 0.06128151
0.308051 0.3512046 0.06118973
0.3077647 0.3540539 0.06108969
0.3074546 0.3569003 0.0609814
0.3071208 0.3597437 0.06086489
0.3067632 0.3625839 0.06074019
0.3063819 0.3654207 0.06060732
0.3059769 0.3682537 0.06046631
0.3055482 0.3710829 0.06031719
0.3050958 0.3739079 0.06015999
0.3046197 0.3767285 0.05999474
0.30412 0.3795446 0.05982148
0.3035967 0.382356 0.05964025
0.3030499 0.3851622 0.05945108
0.3024795 0.3879633 0.05925402
0.3018856 0.3907589 0.0590491
0.3012682 0.3935488 0.05883637
0.3006273 0.3963329 0.05861587
0.299963 0.3991108 0.05838766
0.2992754 0.4018823 0.05815178
0.2985644 0.4046473 0.05790828
0.29783 0.4074056 0.05765721
0.2970725 0.4101568 0.05739863
0.2962916 0.4129008 0.0571326
0.2954876 0.4156374 0.05685917
0.2946605 0.4183664 0.0565784
0.2938102 0.4210874 0.05629035
0.2929369 0.4238004 0.05599509
0.2920405 0.4265051 0.05569267
0.2911212 0.4292012 0.05538318
0.290179 0.4318886 0.05506666
0.289214 0.4345671 0.0547432
0.2882261 0.4372364 0.05441287
0.2872154 0.4398963 0.05407573
0.2861821 0.4425466 0.05373187
0.2851261 0.445187 0.05338136
0.2840475 0.4478175 0.05302428
0.2829464 0.4504377 0.0526607
0.2818228 0.4530474 0.05229071
0.2806768 0.4556465 0.0519144
0.2795085 0.4582347 0.05153185
0.2783179 0.4608118 0.05114315
0.277105 0.4633776 0.05074838
0.2758701 0.4659319 0.05034763
0.274613 0.4684744 0.049941
0.2733339 0.4710051 0.04952859
0.272033 0.4735235 0.04911048
0.2707101 0.4760297 0.04868678
0.2693655 0.4785232 0.04825758
0.2679991 0.481004 0.04782298
0.2666112 0.4834718 0.04738309
0.2652016 0.4859265 0.04693801
0.2637706 0.4883677 0.04648785
0.2623183 0.4907954 0.04603271
0.2608446 0.4932093 0.04557271
0.2593497 0.4956092 0.04510795
0.2578337 0.4979948 0.04463854
0.2562966 0.5003661 0.04416461
0.2547386 0.5027228 0.04368627
0.2531598 0.5050647 0.04320363
0.2515602 0.5073916 0.04271682
0.2499399 0.5097033 0.04222595
0.2482991 0.5119995 0.04173115
0.2466378 0.5142802 0.04123254
0.2449561 0.5165451 0.04073025
0.2432542 0.5187941 0.0402244
0.2415321 0.5210268 0.03971514
0.2397899 0.5232432 0.03920258
0.2380279 0.525443 0.03868685
0.2362459 0.5276261 0.03816811
0.2344443 0.5297922 0.03764647
0.2326231 0.5319412 0.03712208
0.2307823 0.5340729 0.03659507
0.2289222 0.5361871 0.0360656
0.2270429 0.5382836 0.03553379
0.2251444 0.5403622 0.0349998
0.2232269 0.5424228 0.03446377
0.2212905 0.5444651 0.03392584
0.2193353 0.5464891 0.03338617
0.2173616 0.5484944 0.0328449
0.2153693 0.5504809 0.0323022
0.2133586 0.5524486 0.0317582
0.2113297 0.554397 0.03121308
0.2092828 0.5563262 0.03066697
0.2072178 0.5582359 0.03012005
0.2051351 0.560126 0.02957247
0.2030346 0.5619963 0.0290244
0.2009167 0.5638466 0.02847598
0.1987813 0.5656767 0.0279274
0.1966287 0.5674866 0.02737882
0.194459 0.5692759 0.02683039
0.1922724 0.5710447 0.0262823
0.190069 0.5727926 0.02573471
0.187849 0.5745196 0.0251878
0.1856126 0.5762255 0.02464172
0.1833598 0.5779102 0.02409667
0.1810909 0.5795734 0.02355282
0.178806 0.5812151 0.02301034
0.1765053 0.5828351 0.02246941
0.174189 0.5844332 0.02193021
0.1718572 0.5860094 0.02139293
0.1695101 0.5875634 0.02085774
0.1671479 0.5890951 0.02032483
0.1647708 0.5906044 0.01979438
0.1623789 0.5920911 0.01926659
0.1599725 0.5935552 0.01874163
0.1575516 0.5949965 0.01821969
0.1551166 0.5964148 0.01770097
0.1526675 0.5978101 0.01718566
0.1502047 0.5991821 0.01667395
0.1477282 0.6005309 0.01616603
0.1452383 0.6018562 0.01566209
0.1427351 0.603158 0.01516233
0.140219 0.6044361 0.01466696
0.13769 0.6056905 0.01417615
0.1351484 0.606921 0.01369012
0.1325943 0.6081275 0.01320906
0.1300281 0.6093099 0.01273318
0.1274499 0.6104681 0.01226266
0.1248599 0.6116021 0.01179772
0.1222583 0.6127117 0.01133856
0.1196454 0.6137968 0.01088538
0.1170214 0.6148574 0.01043838
0.1143865 0.6158934 0.009997767
0.1117409 0.6169046 0.009563751
0.1090849 0.6178911 0.009136535
0.1064186 0.6188526 0.008716326
0.1037424 0.6197893 0.008303331
0.1010564 0.620701 0.007897756
0.09836094 0.6215876 0.007499811
0.09565617 0.622449 0.007109704
0.09294236 0.6232853 0.006727643
0.09021975 0.6240964 0.006353838
0.0874886 0.6248822 0.005988498
0.08474915 0.6256426 0.005631832
0.08200163 0.6263777 0.005284051
0.07924632 0.6270874 0.004945364
0.07648345 0.6277716 0.004615981
0.07371328 0.6284303 0.004296113
0.07093607 0.6290636 0.003985968
0.06815207 0.6296714 0.003685759
0.06536155 0.6302536 0.003395693
0.06256476 0.6308102 0.003115981
0.05976198 0.6313413 0.002846832
0.05695346 0.6318468 0.002588455
0.05413946 0.6323268 0.00234106
0.05132027 0.6327812 0.002104853
0.04849615 0.63321 0.001880044
0.04566737 0.6336133 0.001666839
0.0428342 0.6339911 0.001465446
0.03999692 0.6343434 0.00127607
0.0371558 0.6346702 0.001098918
0.03431113 0.6349715 0.0009341922
0.03146317 0.6352474 0.0007820983
0.02861222 0.635498 0.0006428387
0.02575854 0.6357232 0.0005166153
0.02290243 0.6359231 0.0004036292
0.02004416 0.6360978 0.00030408
0.01718403 0.6362473 0.0002181666
0.01432231 0.6363717 0.0001460864
0.01145929 0.6364711 8.803558e-05
0.008595265 0.6365455 4.420889e-05
0.005730514 0.6365951 1.479973e-05
0.00286533 0.6366198 0
0 0.6366198 0

LINES 349 1047
2 0 1
2 1 2
2 2 3
2 3 4
2 4 5
2 5 6
2 6 7
2 7 8
2 8 9
2 9 10
2 10 11
2 11 12
2 12 13
2 13 14
2 14 15
2 15 16
2 16 17
2 17 18
2 18 19
2 19 20
2 20 21
2 21 22
2 22 23
2 23 24
2 24 25
2 25 26
2 26 27
2 27 28
2 28 29
2 29 30
2 30 31
2 31 32
2 32 33
2 33 34
2 34 35
2 35 36
2 36 37
2 37 38
2 38 39
2 39 40
2 40 41
2 41 42
2 42 43
2 43 44
2 44 45
2 45 46
2 46 47
2 47 48
2 48 49
2 49 50
2 50 51
2 51 52
2 52 53
2 53 54
2 54 55
2 55 56
2 56 57
2 57 58
2 58 59
2 59 60
2 60 61
2 61 62
2 62 63
2 63 64
2 64 65
2 65 66
2 66 67
2 67 68
2 68 69
2 69 70
2 70 71
2 71 72
2 72 73
2 73 74
2 74 75
2 75 76
2 76 77
2 77 78
2 78 79
2 79 80
2 80 81
2 81 82
2 82 83
2 83 84
2 84 85
2 85 86
2 86 87
2 87 88
2 88 89
2 89 90
2 90 91
2 91 92
2 92 93
2 93 94
2 94 95
2 95 96
2 96 97
2 97 98
2 98 99
2 99 100
2 100 101
2 101 102
2 102 103
2 103 104
2 104 105
2 105 106
2 106 107
2 107 108
2 108 109
2 109 110
2 110 111
2 111 112
2 112 113
2 113 114
2 114 115
2 115 116
2 116 117
2 117 118
2 118 119
2 119 120
2 120 121
2 121 122
2 122 123
2 123 124
2 124 125
2 125 126
2 126 127
2 127 128
2 128 129
2 129 130
2 130 131
2 131 132
2 132 133
2 133 134
2 134 135
2 135 136
2 136 137
2 137 138
2 138 139
2 139 140
2 140 141
2 141 142
2 142 143
2 143 144
2 144 145
2 145 146
2 146 147
2 147 148
2 148 149
2 149 150
2 150 151
2 151 152
2 152 153
2 153 154
2 154 155
2 155 156
2 156 157
2 157 158
2 158 159
2 159 160
2 160 161
2 161 162
2 162 163
2 163 164
2 164 165
2 165 166
2 166 167
2 167 168
2 168 169
2 169 170
2 170 171
2 171 172
2 172 173
2 173 174
2 174 175
2 175 176
2 176 177
2 177 178
2 178 179
2 179 180
2 180 181
2 181 182
2 182 183
2 183 184
2 184 185
2 185 186
2 186 187
2 187 188
2 188 189
2 189 190
2 190 191
2 191 192
2 192 193
2 193 194
2 194 195
2 195 196
2 196 197
2 197 198
2 198 199
2 199 200
2 200 201
2 201 202
2 202 203
2 203 204
2 204 205
2 205 206
2 206 207
2 207 208
2 208 209
2 209 210
2 210 211
2 211 212
2 212 213
2 213 214
2 214 215
2 215 216
2 216 217
2 217 218
2 218 219
2 219 220
2 220 221
2 221 222
2 222 223
2 223 224
2 224 225
2 225 226
2 226 227
2 227 228
2 228 229
2 229 230
2 230 231
2 231 232
2 232 233
2 233 234
2 234 235
2 235 236
2 236 237
2 237 238
2 238 239
2 239 240
2 240 241
2 241 242
2 242 243
2 243 244
2 244 245
2 245 246
2 246 247
2 247 248
2 248 249
2 249 250
2 250 251
2 251 252
2 252 253
2 253 254
2 254 255
2 255 256
2 256 257
2 257 258
2 258 259
2 259 260
2 260 261
2 261 262
2 262 263
2 263 264
2 264 265
2 265 266
2 266 267
2 267 268
2 268 269
2 269 270
2 270 271
2 271 272
2 272 273
2 273 274
2 274 275
2 275 276
2 276 277
2 277 278
2 278 279
2 279 280
2 280 281
2 281 282
2 282 283
2 283 284
2 284 285
2 285 286
2 286 287
2 287 288
2 288 289
2 289 290
2 290 291
2 291 292
2 292 293
2 293 294
2 294 295
2 295 296
2 296 297
2 297 298
2 298 299
2 299 300
2 300 301
2 301 302
2 302 303
2 303 304
2 304 305
2 305 306
2 306 307
2 307 308
2 308 309
2 309 310
2 310 311
2 311 312
2 312 313
2 313 314
2 314 315
2 315 316
2 316 317
2 317 318
2 318 319
2 319 320
2 320 321
2 321 322
2 322 323
2 323 324
2 324 325
2 325 326
2 326 327
2 327 328
2 328 329
2 329 330
2 330 331
2 331 332
2 332 333
2 333 334
2 334 335
2 335 336
2 336 337
2 337 338
2 338 339
2 339 340
2 340 341
2 341 342
2 342 343
2 343 344
2 344 345
2 345 346
2 346 347
2 347 348
2 348 349


POINT_DATA 350
SCALARS a FLOAT 1
LOOKUP_TABLE default
0.0005894628
0.0005894628
0.0005894628
0.0005894628
0.0005894628
0.0005894628
0.0005894628
0.0005894628
0.0005894628
0.0005894628
0.0005894628
0.0005894628
0.0005894628
0.0005894628
0.0005894628
0.0005894628
0.0005894628
0.0005894628
0.0005894628
0.0005894628
0.0005894628
0.0005894628
0.0005894628
0.0005894628
0.0005894628
0.0005894628
0.0005894628
0.0005894628
0.0005894628
0.0005894628
0.0005894628
0.0005894628
0.0005894628
0.0005894628
0.0005894628
0.0005894628
0.0005894628
0.0005894628
0.0005894628
0.0005894628
0.0005894628
0.0005894628
0.0005894628
0.0005894628
0.0005894628
0.0005894628
0.0005894628
0.0005894628
0.0005894628
0.0005894628
0.0005894628
0.0005894628
0.0005894628
0.0005894628
0.0005894628
0.0005894628
0.0005894628
0.0005894628
0.0005894628
0.0005894628
0.0005894628
0.0005894628
0.0005894628
0.0005894628
0.0005894628
0.0005894628
0.0005894628
0.0005894628
0.0005894628
0.0005894628
0.0005894628
0.0005894628
0.0005894628
0.0005894628
0.0005894628
0.0005894628
0.0005894628
0.0005894628
0.0005894628
0.0005894628
0.0005894628
0.0005894628
0.0005894628
0.0005894628
0.0005894628
0.0005894628
0.0005894628
0.0005894628
0.0005894628
0.0005894628
0.0005894628
0.0005894628
0.0005894628
0.0005894628
0.0005894628
0.0005894628
0.0005894628
0.0005894628
0.0005894628
0.0005894628
0.0005894628
0.0005894628
0.0005894628
0.0005894628
0.0005894628
0.0005894628
0.0005894628
0.0005894628
0.0005894628
0.0005894628
0.0005894628
0.0005894628
0.0005894628
0.0005894628
0.0005894628
0.0005894628
0.0005894628
0.0005894628
0.0005894628
0.0005894628
0.0005894628
0.0005894628
0.0005894628
0.0005894628
0.0005894628
0.0005894628
0.0005894628
0.0005894628
0.0005894628
0.0005894628
0.0005894628
0.0005894628
0.0005894628
0.0005894628
0.0005894628
0.0005894628
0.0005894628
0.0005894628
0.0005894628
0.0005894628
0.0005894628
0.0005894628
0.0005894628
0.0005894628
0.0005894628
0.0005894628
0.0005894628
0.0005894628
0.0005894628
0.0005894628
0.0005894628
0.0005894628
0.0005894628
0.0005894628
0.0005894628
0.0005894628
0.0005894628
0.0005894628
0.0005894628
0.0005894628
0.0005894628
0.0005894628
0.0005894628
0.0005894628
0.0005894628
0.0005894628
0.0005894628
0.0005894628
0.0005894628
0.0005894628
0.0005894628
0.0005894628
0.0005894628
0.0005894628
0.0005894628
0.0005894628
0.0005894628
0.0005894628
0.0005894628
0.0005894628
0.0005894628
0.0005894628
0.0005894628
0.0005894628
0.0005894628
0.0005894628
0.0005894628
0.0005894628
0.0005894628
0.0005894628
0.0005894628
0.0005894628
0.0005894628
0.0005894628
0.0005894628
0.0005894628
0.0005894628
0.0005894628
0.0005894628
0.0005894628
0.0005894628
0.0005894628
0.0005894628
0.0005894628
0.0005894628
0.0005894628
0.0005894628
0.0005894628
0.0005894628
0.0005894628
0.0005894628
0.0005894628
0.0005894628
0.0005894628
0.0005894628
0.0005894628
0.0005894628
0.0005894628
0.0005894628
0.0005894628
0.0005894628
0.0005894628
0.0005894628
0.0005894628
0.0005894628
0.0005894628
0.0005894628
0.0005894628
0.0005894628
0.0005894628
0.0005894628
0.0005894628
0.0005894628
0.0005894628
0.0005894628
0.0005894628
0.0005894628
0.0005894628
0.0005894628
0.0005894628
0.0005894628
0.0005894628
0.0005894628
0.0005894628
0.0005894628
0.0005894628
0.0005894628
0.0005894628
0.0005894628
0.0005894628
0.0005894628
0.0005894628
0.0005894628
0.0005894628
0.0005894628
0.0005894628
0.0005894628
0.0005894628
0.0005894628
0.0005894628
0.0005894628
0.0005894628
0.0005894628
0.0005894628
0.0005894628
0.0005894628
0.0005894628
0.0005894628
0.0005894628
0.0005894628
0.0005894628
0.0005894628
0.0005894628
0.0005894628
0.0005894628
0.0005894628
0.0005894628
0.0005894628
0.0005894628
0.0005894628
0.0005894628
0.0005894628
0.0005894628
0.0005894628
0.0005894628
0.0005894628
0.0005894628
0.0005894628
0.0005894628
0.0005894628
0.0005894628
0.0005894628
0.0005894628
0.0005894628
0.0005894628
0.0005894628
0.0005894628
0.0005894628
0.0005894628
0.0005894628
0.0005894628
0.0005894628
0.0005894628
0.0005894628
0.0005894628
0.0005894628
0.0005894628
0.0005894628
0.0005894628
0.0005894628
0.0005894628
0.0005894628
0.0005894628
0.0005894628
0.0005894628
0.0005894628
0.0005894628
0.0005894628
0.0005894628
0.0005894628
0.0005894628
0.0005894628
0.0005894628
0.0005894628
0.0005894628
0.0005894628
0.0005894628
0.0005894628
0.0005894628
0.0005894628
0.0005894628
0.0005894628
0.0005894628
0.0005894628
0.0005894628
0.0005894628
0.0005894628
0.0005894628
0.0005894628
0.0005894628
0.0005894628
0.0005894628
0.0005894628
0.0005894628
0.0005894628
0.0005894628
0.0005894628
0.0005894628
0.0005894628
0.0005894628


SCALARS b FLOAT 1
LOOKUP_TABLE default
0.02357851
0.02357851
0.02357851
0.02357851
0.02357851
0.02357851
0.02357851
0.02357851
0.02357851
0.02357851
0.02357851
0.02357851
0.02357851
0.02357851
0.02357851
0.02357851
0.02357851
0.02357851
0.02357851
0.02357851
0.02357851
0.02357851
0.02357851
0.02357851
0.02357851
0.02357851
0.02357851
0.02357851
0.02357851
0.02357851
0.02357851
0.02357851
0.02357851
0.02357851
0.02357851
0.02357851
0.02357851
0.02357851
0.02357851
0.02357851
0.02357851
0.02357851
0.02357851
0.02357851
0.02357851
0.02357851
0.02357851
0.02357851
0.02357851
0.02357851
0.02357851
0.02357851
0.02357851
0.02357851
0.02357851
0.02357851
0.02357851
0.02357851
0.02357851
0.02357851
0.02357851
0.02357851
0.02357851
0.02357851
0.02357851
0.02357851
0.02357851
0.02357851
0.02357851
0.02357851
0.02357851
0.02357851
0.02357851
0.02357851
0.02357851
0.02357851
0.02357851
0.02357851
0.02357851
0.02357851
0.02357851
0.02357851
0.02357851
0.02357851
0.02357851
0.02357851
0.02357851
0.02357851
0.02357851
0.02357851
0.02357851
0.02357851
0.02357851
0.02357851
0.02357851
0.02357851
0.02357851
0.02357851
0.02357851
0.02357851
0.02357851
0.02357851
0.02357851
0.02357851
0.02357851
0.02357851
0.02357851
0.02357851
0.02357851
0.02357851
0.02357851
0.02357851
0.02357851
0.02357851
0.02357851
0.02357851
0.02357851
0.02357851
0.02357851
0.02357851
0.02357851
0.02357851
0.02357851
0.02357851
0.02357851
0.02357851
0.02357851
0.02357851
0.02357851
0.02357851
0.02357851
0.02357851
0.02357851
0.02357851
0.02357851
0.02357851
0.02357851
0.02357851
0.02357851
0.02357851
0.02357851
0.02357851
0.02357851
0.02357851
0.02357851
0.02357851
0.02357851
0.02357851
0.02357851
0.02357851
0.02357851
0.02357851
0.02357851
0.02357851
0.02357851
0.02357851
0.02357851
0.02357851
0.02357851
0.02357851
0.02357851
0.02357851
0.02357851
0.02357851
0.02357851
0.02357851
0.02357851
0.02357851
0.02357851
0.02357851
0.02357851
0.02357851
0.02357851
0.02357851
0.02357851
0.02357851
0.02357851
0.02357851
0.02357851
0.02357851
0.02357851
0.02357851
0.02357851
0.02357851
0.02357851
0.02357851
0.02357851
0.02357851
0.02357851
0.02357851
0.02357851
0.02357851
0.02357851
0.02357851
0.02357851
0.02357851
0.02357851
0.02357851
0.02357851
0.02357851
0.02357851
0.02357851
0.02357851
0.02357851
0.02357851
0.02357851
0.02357851
0.02357851
0.02357851
0.02357851
0.02357851
0.02357851
0.02357851
0.02357851
0.02357851
0.02357851
0.02357851
0.02357851
0.02357851
0.02357851
0.02357851
0.02357851
0.02357851
0.02357851
0.02357851
0.02357851
0.02357851
0.02357851
0.02357851
0.02357851
0.02357851
0.02357851
0.02357851
0.02357851
0.02357851
0.02357851
0.02357851
0.02357851
0.02357851
0.02357851
0.02357851
0.02357851
0.02357851
0.02357851
0.02357851
0.02357851
0.02357851
0.02357851
0.02357851
0.02357851
0.02357851
0.02357851
0.02357851
0.02357851
0.02357851
0.02357851
0.02357851
0.02357851
0.02357851
0.02357851
0.02357851
0.02357851
0.02357851
0.02357851
0.02357851
0.02357851
0.02357851
0.02357851
0.02357851
0.02357851
0.02357851
0.02357851
0.02357851
0.02357851
0.02357851
0.02357851
0.02357851
0.02357851
0.02357851
0.02357851
0.02357851
0.02357851
0.02357851
0.02357851
0.02357851
0.02357851
0.02357851
0.02357851
0.02357851
0.02357851
0.02357851
0.02357851
0.02357851
0.02357851
0.02357851
0.02357851
0.02357851
0.02357851
0.02357851
0.02357851
0.02357851
0.02357851
0.02357851
0.02357851
0.02357851
0.02357851
0.02357851
0.02357851
0.02357851
0.02357851
0.02357851
0.02357851
0.02357851
0.02357851
0.02357851
0.02357851
0.02357851
0.02357851
0.02357851
0.02357851
0.02357851
0.02357851
0.02357851
0.02357851
0.02357851
0.02357851
0.02357851
0.02357851
0.02357851
0.02357851
0.02357851
0.02357851
0.02357851
0.02357851
0.02357851
0.02357851
0.02357851
0.02357851
0.02357851
0.02357851
0.02357851
0.02357851
0.02357851
0.02357851
0.02357851
0.02357851
0.02357851
0.02357851
0.02357851
0.02357851


VECTORS d1 FLOAT
0 0.8559063 0.517131
-0.01005464 0.8595906 0.5108845
-0.02010121 0.8631273 0.5045862
-0.03013797 0.8665166 0.4982377
-0.04016317 0.8697586 0.4918404
-0.05017511 0.8728535 0.485396
-0.06017209 0.8758016 0.4789059
-0.07015246 0.8786032 0.4723717
-0.08011456 0.8812586 0.465795
-0.0900568 0.8837681 0.4591773
-0.09997757 0.8861321 0.4525201
-0.1098753 0.888351 0.445825
-0.1197485 0.8904253 0.4390935
-0.1295956 0.8923554 0.4323272
-0.1394151 0.8941419 0.4255276
-0.1492057 0.8957852 0.4186962
-0.1589657 0.897286 0.4118345
-0.1686939 0.8986449 0.4049442
-0.1783888 0.8998624 0.3980266
-0.1880492 0.9009392 0.3910833
-0.1976736 0.9018759 0.3841158
-0.2072608 0.9026734 0.3771257
-0.2168095 0.9033322 0.3701143
-0.2263184 0.9038532 0.3630833
-0.2357864 0.904237 0.356034
-0.2452122 0.9044846 0.3489679
-0.2545947 0.9045967 0.3418866
-0.2639327 0.9045741 0.3347914
-0.2732252 0.9044177 0.3276838
-0.2824711 0.9041283 0.3205652
-0.2916692 0.903707 0.313437
-0.3008186 0.9031545 0.3063008
-0.3099183 0.9024718 0.2991578
-0.3189673 0.9016598 0.2920094
-0.3279646 0.9007195 0.2848571
-0.3369094 0.8996519 0.2777022
-0.3458007 0.898458 0.2705461
-0.3546376 0.8971387 0.2633901
-0.3634194 0.8956951 0.2562355
-0.3721452 0.8941282 0.2490837
-0.3808142 0.8924391 0.2419359
-0.3894256 0.8906288 0.2347935
-0.3979788 0.8886984 0.2276577
-0.406473 0.8866489 0.2205299
-0.4149074 0.8844815 0.2134112
-0.4232815 0.8821972 0.2063029
-0.4315946 0.8797971 0.1992063
-0.4398461 0.8772824 0.1921224
-0.4480354 0.8746541 0.1850527
-0.4561619 0.8719134 0.1779981
-0.464225 0.8690615 0.1709599
-0.4722243 0.8660994 0.1639393
-0.4801592 0.8630283 0.1569374
-0.4880293 0.8598493 0.1499553
-0.4958341 0.8565636 0.1429942
-0.5035731 0.8531724 0.1360551
-0.511246 0.8496768 0.129139
-0.5188524 0.8460779 0.1222472
-0.5263918 0.842377 0.1153806
-0.5338639 0.8385752 0.1085403
-0.5412685 0.8346736 0.1017273
-0.5486051 0.8306734 0.09494261
-0.5558734 0.8265759 0.08818723
-0.5630733 0.8223821 0.08146213
-0.5702045 0.8180933 0.07476828
-0.5772666 0.8137105 0.06810664
-0.5842595 0.809235 0.06147815
-0.591183 0.8046679 0.05488372
-0.5980368 0.8000105 0.04832427
-0.6048209 0.7952637 0.04180068
-0.611535 0.7904289 0.03531385
-0.618179 0.7855072 0.02886462
-0.6247529 0.7804996 0.02245386
-0.6312564 0.7754075 0.0160824
-0.6376895 0.7702318 0.009751058
-0.6440521 0.7649738 0.003460649
-0.6503441 0.7596346 -0.002788033
-0.6565655 0.7542154 -0.008994208
-0.6627163 0.7487172 -0.01515711
-0.6687964 0.7431411 -0.02127598
-0.6748057 0.7374884 -0.02735008
-0.6807444 0.7317601 -0.03337869
-0.6866124 0.7259573 -0.03936109
-0.6924098 0.7200812 -0.04529658
-0.6981365 0.7141328 -0.05118447
-0.7037926 0.7081132 -0.05702409
-0.7093782 0.7020235 -0.06281477
-0.7148932 0.6958647 -0.06855587
-0.7203379 0.6896381 -0.07424675
-0.7257123 0.6833445 -0.07988679
-0.7310165 0.6769852 -0.08547536
-0.7362505 0.670561 -0.09101188
-0.7414145 0.6640732 -0.09649575
-0.7465086 0.6575226 -0.1019264
-0.7515329 0.6509104 -0.1073033
-0.7564875 0.6442376 -0.1126258
-0.7613727 0.6375051 -0.1178934
-0.7661885 0.630714 -0.1231057
-0.7709351 0.6238654 -0.128262
-0.7756126 0.6169601 -0.1333618
-0.7802212 0.6099992 -0.1384047
-0.7847611 0.6029837 -0.1433902
-0.7892324 0.5959144 -0.1483178
-0.7936354 0.5887925 -0.153187
-0.7979702 0.5816188 -0.1579974
-0.8022369 0.5743943 -0.1627486
-0.8064359 0.5671199 -0.16744
-0.8105672 0.5597966 -0.1720713
-0.8146311 0.5524253 -0.176642
-0.8186278 0.5450068 -0.1811518
-0.8225575 0.5375422 -0.1856003
-0.8264204 0.5300323 -0.189987
-0.8302167 0.522478 -0.1943116
-0.8339465 0.5148802 -0.1985737
-0.8376102 0.5072398 -0.202773
-0.841208 0.4995576 -0.206909
-0.84474 0.4918345 -0.2109816
-0.8482064 0.4840713 -0.2149902
-0.8516076 0.476269 -0.2189347
-0.8549436 0.4684283 -0.2228146
-0.8582148 0.4605501 -0.2266297
-0.8614213 0.4526351 -0.2303797
-0.8645633 0.4446843 -0.2340642
-0.8676412 0.4366985 -0.237683
-0.870655 0.4286783 -0.2412358
-0.873605 0.4206247 -0.2447224
-0.8764915 0.4125385 -0.2481424
-0.8793146 0.4044203 -0.2514957
-0.8820745 0.396271 -0.2547819
-0.8847716 0.3880913 -0.2580008
-0.8874058 0.3798821 -0.2611522
-0.8899776 0.371644 -0.2642359
-0.892487 0.3633779 -0.2672516
-0.8949344 0.3550844 -0.2701991
-0.8973198 0.3467643 -0.2730782
-0.8996435 0.3384184 -0.2758888
-0.9019057 0.3300473 -0.2786305
-0.9041065 0.3216518 -0.2813032
-0.9062463 0.3132326 -0.2839068
-0.908325 0.3047903 -0.2864411
-0.910343 0.2963258 -0.2889058
-0.9123005 0.2878397 -0.2913008
-0.9141975 0.2793327 -0.293626
-0.9160342 0.2708055 -0.2958812
-0.9178109 0.2622588 -0.2980662
-0.9195277 0.2536932 -0.300181
-0.9211847 0.2451094 -0.3022253
-0.9227821 0.2365081 -0.304199
-0.9243201 0.2278899 -0.3061021
-0.9257988 0.2192556 -0.3079343
-0.9272183 0.2106057 -0.3096956
-0.9285788 0.201941 -0.3113859
-0.9298805 0.193262 -0.313005
-0.9311233 0.1845695 -0.3145528
-0.9323075 0.175864 -0.3160293
-0.9334332 0.1671462 -0.3174344
-0.9345005 0.1584167 -0.3187679
-0.9355095 0.1496762 -0.3200298
-0.9364602 0.1409253 -0.3212199
-0.9373529 0.1321646 -0.3223384
-0.9381876 0.1233948 -0.323385
-0.9389643 0.1146164 -0.3243596
-0.9396831 0.1058301 -0.3252624
-0.9403442 0.0970365 -0.3260931
-0.9409476 0.08823622 -0.3268517
-0.9414933 0.07942987 -0.3275382
-0.9419814 0.07061805 -0.3281526
-0.942412 0.06180139 -0.3286948
-0.942785 0.05298048 -0.3291648
-0.9431007 0.04415595 -0.3295625
-0.9433588 0.03532839 -0.3298879
-0.9435596 0.02649841 -0.330141
-0.943703 0.01766661 -0.3303218
-0.943789 0.008833608 -0.3304303
-0.9438177 -1.265654e-14 -0.3304665
-0.943789 -0.008833608 -0.3304303
-0.943703 -0.01766661 -0.3303218
-0.9435596 -0.02649841 -0.330141
-0.9433588 -0.03532839 -0.3298879
-0.9431007 -0.04415595 -0.3295625
-0.942785 -0.05298048 -0.3291648
-0.942412 -0.06180139 -0.3286948
-0.9419814 -0.07061805 -0.3281526
-0.9414933 -0.07942987 -0.3275382
-0.9409476 -0.08823622 -0.3268517
-0.9403442 -0.0970365 -0.3260931
-0.9396831 -0.1058301 -0.3252624
-0.9389643 -0.1146164 -0.3243596
-0.9381876 -0.1233948 -0.323385
-0.9373529 -0.1321646 -0.3223384
-0.9364602 -0.1409253 -0.3212199
-0.9355095 -0.1496762 -0.3200298
-0.9345005 -0.1584167 -0.3187679
-0.9334332 -0.1671462 -0.3174344
-0.9323075 -0.175864 -0.3160293
-0.9311233 -0.1845695 -0.3145528
-0.9298805 -0.193262 -0.313005
-0.9285788 -0.201941 -0.3113859
-0.9272183 -0.2106057 -0.3096956
-0.9257988 -0.2192556 -0.3079343
-0.9243201 -0.2278899 -0.3061021
-0.9227821 -0.2365081 -0.304199
-0.9211847 -0.2451094 -0.3022253
-0.9195277 -0.2536932 -0.300181
-0.9178109 -0.2622588 -0.2980662
-0.9160342 -0.2708055 -0.2958812
-0.9141975 -0.2793327 -0.293626
-0.9123005 -0.2878397 -0.2913008
-0.910343 -0.2963258 -0.2889058
-0.908325 -0.3047903 -0.2864411
-0.9062463 -0.3132326 -0.2839068
-0.9041065 -0.3216518 -0.2813032
-0.9019057 -0.3300473 -0.2786305
-0.8996435 -0.3384184 -0.2758888
-0.8973198 -0.3467643 -0.2730782
-0.8949344 -0.3550844 -0.2701991
-0.892487 -0.3633779 -0.2672516
-0.8899776 -0.371644 -0.2642359
-0.8874058 -0.3798821 -0.2611522
-0.8847716 -0.3880913 -0.2580008
-0.8820745 -0.396271 -0.2547819
-0.8793146 -0.4044203 -0.2514957
-0.8764915 -0.4125385 -0.2481424
-0.873605 -0.4206247 -0.2447224