# vtk DataFile Version 2.0
Written badly by Kevin Korner
ASCII
DATASET POLYDATA
POINTS 350 FLOAT
0 0 0
0.00286533 0 0
0.005730529 2.574584e-05 -8.925026e-06
0.008595341 7.725925e-05 -2.665393e-05
0.01145951 0.0001545589 -5.30652e-05
0.01432277 0.0002576603 -8.803699e-05
0.01718487 0.0003865762 -0.0001314471
0.02004555 0.000541316 -0.0001831732
0.02290455 0.0007218862 -0.0002430925
0.02576163 0.0009282904 -0.000311082
0.02861652 0.001160529 -0.0003870184
0.03146898 0.0014186 -0.0004707785
0.03431874 0.001702498 -0.0005622386
0.03716556 0.002012214 -0.0006612748
0.04000918 0.002347738 -0.0007677634
0.04284936 0.002709055 -0.0008815801
0.04568584 0.003096149 -0.001002601
0.04851838 0.003508999 -0.001130702
0.05134672 0.003947583 -0.001265758
0.05417062 0.004411875 -0.001407645
0.05698983 0.004901848 -0.001556238
0.05980411 0.00541747 -0.001711414
0.06261321 0.005958707 -0.001873048
0.06541689 0.006525524 -0.002041015
0.06821491 0.00711788 -0.002215191
0.07100702 0.007735733 -0.002395452
0.07379298 0.00837904 -0.002581674
0.07657256 0.009047753 -0.002773731
0.07934551 0.009741821 -0.002971501
0.0821116 0.01046119 -0.003174859
0.0848706 0.01120581 -0.003383682
0.08762226 0.01197562 -0.003597847
0.09036635 0.01277056 -0.003817228
0.09310265 0.01359057 -0.004041704
0.09583091 0.01443558 -0.004271152
0.09855092 0.01530552 -0.004505448
0.1012624 0.01620033 -0.004744471
0.1039652 0.01711993 -0.004988097
0.1066591 0.01806424 -0.005236205
0.1093438 0.01903319 -0.005488674
0.112019 0.0200267 -0.005745381
0.1146847 0.02104468 -0.006006206
0.1173405 0.02208706 -0.006271028
0.1199863 0.02315374 -0.006539727
0.1226218 0.02424463 -0.006812182
0.1252468 0.02535965 -0.007088275
0.1278611 0.02649869 -0.007367885
0.1304645 0.02766167 -0.007650895
0.1330567 0.02884848 -0.007937185
0.1356376 0.03005903 -0.008226637
0.1382069 0.0312932 -0.008519135
0.1407644 0.0325509 -0.008814561
0.14331 0.03383202 -0.009112798
0.1458434 0.03513645 -0.009413731
0.1483643 0.03646408 -0.009717244
0.1508727 0.0378148 -0.01002322
0.1533684 0.03918848 -0.01033155
0.155851 0.04058502 -0.01064211
0.1583204 0.04200428 -0.0109548
0.1607764 0.04344616 -0.0112695
0.1632188 0.04491053 -0.01158609
0.1656475 0.04639726 -0.01190448
0.1680622 0.04790623 -0.01222453
0.1704627 0.0494373 -0.01254615
0.1728489 0.05099035 -0.01286923
0.1752205 0.05256524 -0.01319365
0.1775774 0.05416184 -0.0135193
0.1799194 0.05578001 -0.01384609
0.1822462 0.05741961 -0.0141739
0.1845578 0.05908051 -0.01450262
0.186854 0.06076255 -0.01483215
0.1891345 0.06246561 -0.01516238
0.1913991 0.06418953 -0.01549322
0.1936478 0.06593416 -0.01582455
0.1958803 0.06769936 -0.01615627
0.1980965 0.06948497 -0.01648828
0.2002962 0.07129085 -0.01682048
0.2024792 0.07311685 -0.01715276
0.2046453 0.07496279 -0.01748504
0.2067945 0.07682854 -0.0178172
0.2089264 0.07871392 -0.01814915
0.211041 0.08061879 -0.01848079
0.2131382 0.08254298 -0.01881203
0.2152176 0.08448632 -0.01914277
0.2172793 0.08644866 -0.01947291
0.2193229 0.08842982 -0.01980235
0.2213485 0.09042965 -0.02013102
0.2233557 0.09244796 -0.0204588
0.2253445 0.0944846 -0.02078561
0.2273148 0.09653938 -0.02111136
0.2292663 0.09861215 -0.02143596
0.2311989 0.1007027 -0.02175932
0.2331126 0.1028109 -0.02208135
0.235007 0.1049365 -0.02240196
0.2368822 0.1070795 -0.02272107
0.2387379 0.1092395 -0.02303859
0.240574 0.1114164 -0.02335443
0.2423904 0.11361 -0.02366851
0.244187 0.1158202 -0.02398075
0.2459635 0.1180468 -0.02429106
0.24772 0.1202896 -0.02459937
0.2494562 0.1225483 -0.02490559
0.2511721 0.1248228 -0.02520964
0.2528674 0.127113 -0.02551144
0.2545421 0.1294186 -0.02581093
0.2561961 0.1317394 -0.02610801
0.2578292 0.1340753 -0.02640262
0.2594414 0.136426 -0.02669468
0.2610324 0.1387913 -0.02698411
0.2626022 0.1411712 -0.02727085
0.2641507 0.1435653 -0.02755482
0.2656777 0.1459734 -0.02783595
0.2671832 0.1483954 -0.02811417
0.2686671 0.1508311 -0.02838941
0.2701291 0.1532803 -0.0286616
0.2715693 0.1557427 -0.02893069
0.2729875 0.1582182 -0.02919659
0.2743836 0.1607066 -0.02945925
0.2757575 0.1632076 -0.0297186
0.2771092 0.1657211 -0.02997458
0.2784385 0.1682469 -0.03022712
0.2797453 0.1707846 -0.03047618
0.2810295 0.1733343 -0.03072168
0.2822911 0.1758955 -0.03096357
0.28353 0.1784682 -0.03120179
0.284746 0.1810521 -0.03143628
0.2859391 0.1836469 -0.03166699
0.2871092 0.1862526 -0.03189387
0.2882562 0.1888689 -0.03211686
0.28938 0.1914955 -0.0323359
0.2904806 0.1941323 -0.03255095
0.2915578 0.196779 -0.03276196
0.2926116 0.1994354 -0.03296888
0.293642 0.2021014 -0.03317165
0.2946488 0.2047767 -0.03337024
0.295632 0.207461 -0.03356459
0.2965915 0.2101542 -0.03375467
0.2975273 0.2128561 -0.03394042
0.2984392 0.2155663 -0.03412181
0.2993272 0.2182848 -0.03429879
0.3001913 0.2210113 -0.03447132
0.3010314 0.2237456 -0.03463936
0.3018474 0.2264874 -0.03480288
0.3026392 0.2292365 -0.03496184
0.3034069 0.2319928 -0.0351162
0.3041504 0.2347559 -0.03526593
0.3048696 0.2375257 -0.03541099
0.3055644 0.240302 -0.03555135
0.3062348 0.2430845 -0.03568698
0.3068808 0.245873 -0.03581784
0.3075024 0.2486672 -0.03594391
0.3080994 0.251467 -0.03606517
0.3086718 0.2542722 -0.03618157
0.3092196 0.2570825 -0.0362931
0.3097428 0.2598976 -0.03639974
0.3102414 0.2627174 -0.03650145
0.3107152 0.2655416 -0.03659822
0.3111642 0.26837 -0.03669002
0.3115885 0.2712025 -0.03677683
0.311988 0.2740386 -0.03685863
0.3123627 0.2768783 -0.03693542
0.3127125 0.2797213 -0.03700716
0.3130374 0.2825674 -0.03707384
0.3133374 0.2854163 -0.03713545
0.3136124 0.2882678 -0.03719197
0.3138626 0.2911218 -0.0372434
0.3140877 0.2939779 -0.03728971
0.3142879 0.2968359 -0.03733091
0.3144631 0.2996956 -0.03736697
0.3146133 0.3025568 -0.0373979
0.3147385 0.3054193 -0.03742368
0.3148386 0.3082828 -0.03744432
0.3149137 0.3111471 -0.0374598
0.3149638 0.314012 -0.03747012
0.3149888 0.3168772 -0.03747528
0.3149888 0.3197426 -0.03747528
0.3149638 0.3226078 -0.03747012
0.3149137 0.3254726 -0.0374598
0.3148386 0.3283369 -0.03744432
0.3147385 0.3312004 -0.03742368
0.3146133 0.3340629 -0.0373979
0.3144631 0.3369241 -0.03736697
0.3142879 0.3397839 -0.03733091
0.3140877 0.3426419 -0.03728971
0.3138626 0.345498 -0.0372434
0.3136124 0.3483519 -0.03719197
0.3133374 0.3512035 -0.03713545
0.3130374 0.3540524 -0.03707384
0.3127125 0.3568985 -0.03700716
0.3123627 0.3597415 -0.03693542
0.311988 0.3625811 -0.03685863
0.3115885 0.3654173 -0.03677683
0.3111642 0.3682497 -0.03669002
0.3107152 0.3710782 -0.03659822
0.3102414 0.3739024 -0.03650145
0.3097428 0.3767222 -0.03639974
0.3092196 0.3795373 -0.0362931
0.3086718 0.3823476 -0.03618157
0.3080994 0.3851527 -0.03606517
0.3075024 0.3879525 -0.03594391
0.3068808 0.3907468 -0.03581784
0.3062348 0.3935353 -0.03568698
0.3055644 0.3963178 -0.03555135
0.3048696 0.399094 -0.03541099
0.3041504 0.4018639 -0.03526593
0.3034069 0.404627 -0.0351162
0.3026392 0.4073833 -0.03496184
0.3018474 0.4101324 -0.03480288
0.3010314 0.4128742 -0.03463936
0.3001913 0.4156085 -0.03447132
0.2993272 0.4183349 -0.03429879
0.2984392 0.4210534 -0.03412181
0.2975273 0.4237637 -0.03394042
0.2965915 0.4264656 -0.03375467
0.295632 0.4291588 -0.03356459
0.2946488 0.4318431 -0.03337024
0.293642 0.4345184 -0.03317165
0.2926116 0.4371843 -0.03296888
0.2915578 0.4398408 -0.03276196
0.2904806 0.4424875 -0.03255095
0.28938 0.4451243 -0.0323359
0.2882562 0.4477509 -0.03211686
0.2871092 0.4503672 -0.03189387
0.2859391 0.4529728 -0.03166699
0.284746 0.4555677 -0.03143628
0.28353 0.4581516 -0.03120179
0.2822911 0.4607243 -0.03096357
0.2810295 0.4632855 -0.03072168
0.2797453 0.4658351 -0.03047618
0.2784385 0.4683729 -0.03022712
0.2771092 0.4708986 -0.02997458
0.2757575 0.4734121 -0.0297186
0.2743836 0.4759132 -0.02945925
0.2729875 0.4784015 -0.02919659
0.2715693 0.480877 -0.02893069
0.2701291 0.4833395 -0.0286616
0.2686671 0.4857886 -0.02838941
0.2671832 0.4882243 -0.02811417
0.2656777 0.4906464 -0.02783595
0.2641507 0.4930545 -0.02755482
0.2626022 0.4954486 -0.02727085
0.2610324 0.4978284 -0.02698411
0.2594414 0.5001938 -0.02669468
0.2578292 0.5025445 -0.02640262
0.2561961 0.5048804 -0.02610801
0.2545421 0.5072012 -0.02581093
0.2528674 0.5095068 -0.02551144
0.2511721 0.5117969 -0.02520964
0.2494562 0.5140715 -0.02490559
0.24772 0.5163302 -0.02459937
0.2459635 0.518573 -0.02429106
0.244187 0.5207995 -0.02398075
0.2423904 0.5230097 -0.02366851
0.240574 0.5252034 -0.02335443
0.2387379 0.5273803 -0.02303859
0.2368822 0.5295403 -0.02272107
0.235007 0.5316832 -0.02240196
0.2331126 0.5338089 -0.02208135
0.2311989 0.5359171 -0.02175932
0.2292663 0.5380076 -0.02143596
0.2273148 0.5400804 -0.02111136
0.2253445 0.5421352 -0.02078561
0.2233557 0.5441718 -0.0204588
0.2213485 0.5461901 -0.02013102
0.2193229 0.5481899 -0.01980235
0.2172793 0.5501711 -0.01947291
0.2152176 0.5521334 -0.01914277
0.2131382 0.5540768 -0.01881203
0.211041 0.556001 -0.01848079
0.2089264 0.5579058 -0.01814915
0.2067945 0.5597912 -0.0178172
0.2046453 0.561657 -0.01748504
0.2024792 0.5635029 -0.01715276
0.2002962 0.5653289 -0.01682048
0.1980965 0.5671348 -0.01648828
0.1958803 0.5689204 -0.01615627
0.1936478 0.5706856 -0.01582455
0.1913991 0.5724302 -0.01549322
0.1891345 0.5741542 -0.01516238
0.186854 0.5758572 -0.01483215
0.1845578 0.5775393 -0.01450262
0.1822462 0.5792002 -0.0141739
0.1799194 0.5808398 -0.01384609
0.1775774 0.5824579 -0.0135193
0.1752205 0.5840545 -0.01319365
0.1728489 0.5856294 -0.01286923
0.1704627 0.5871825 -0.01254615
0.1680622 0.5887135 -0.01222453
0.1656475 0.5902225 -0.01190448
0.1632188 0.5917092 -0.01158609
0.1607764 0.5931736 -0.0112695
0.1583204 0.5946155 -0.0109548
0.155851 0.5960348 -0.01064211
0.1533684 0.5974313 -0.01033155
0.1508727 0.598805 -0.01002322
0.1483643 0.6001557 -0.009717244
0.1458434 0.6014833 -0.009413731
0.14331 0.6027877 -0.009112798
0.1407644 0.6040689 -0.008814561
0.1382069 0.6053266 -0.008519135
0.1356376 0.6065607 -0.008226637
0.1330567 0.6077713 -0.007937185
0.1304645 0.6089581 -0.007650895
0.1278611 0.6101211 -0.007367885
0.1252468 0.6112601 -0.007088275
0.1226218 0.6123751 -0.006812182
0.1199863 0.613466 -0.006539727
0.1173405 0.6145327 -0.006271028
0.1146847 0.6155751 -0.006006206
0.112019 0.6165931 -0.005745381
0.1093438 0.6175866 -0.005488674
0.1066591 0.6185555 -0.005236205
0.1039652 0.6194998 -0.004988097
0.1012624 0.6204194 -0.004744471
0.09855092 0.6213142 -0.004505448
0.09583091 0.6221842 -0.004271152
0.09310265 0.6230292 -0.004041704
0.09036635 0.6238492 -0.003817228
0.08762226 0.6246441 -0.003597847
0.0848706 0.625414 -0.003383682
0.0821116 0.6261586 -0.003174859
0.07934551 0.626878 -0.002971501
0.07657256 0.627572 -0.002773731
0.07379298 0.6282407 -0.002581674
0.07100702 0.628884 -0.002395452
0.06821491 0.6295019 -0.002215191
0.06541689 0.6300942 -0.002041015
0.06261321 0.6306611 -0.001873048
0.05980411 0.6312023 -0.001711414
0.05698983 0.6317179 -0.001556238
0.05417062 0.6322079 -0.001407645
0.05134672 0.6326722 -0.001265758
0.04851838 0.6331108 -0.001130702
0.04568584 0.6335236 -0.001002601
0.04284936 0.6339107 -0.0008815801
0.04000918 0.634272 -0.0007677634
0.03716556 0.6346076 -0.0006612748
0.03431874 0.6349173 -0.0005622386
0.03146898 0.6352012 -0.0004707785
0.02861652 0.6354592 -0.0003870184
0.02576163 0.6356915 -0.000311082
0.02290455 0.6358979 -0.0002430925
0.02004555 0.6360785 -0.0001831732
0.01718487 0.6362332 -0.0001314471
0.01432277 0.6363621 -8.803699e-05
0.01145951 0.6364652 -5.30652e-05
0.008595341 0.6365425 -2.665393e-05
0.005730529 0.636594 -8.925026e-06
0.00286533 0.6366198 0
0 0.6366198 0

LINES 349 1047
2 0 1
2 1 2
2 2 3
2 3 4
2 4 5
2 5 6
2 6 7
2 7 8
2 8 9
2 9 10
2 10 11
2 11 12
2 12 13
2 13 14
2 14 15
2 15 16
2 16 17
2 17 18
2 18 19
2 19 20
2 20 21
2 21 22
2 22 23
2 23 24
2 24 25
2 25 26
2 26 27
2 27 28
2 28 29
2 29 30
2 30 31
2 31 32
2 32 33
2 33 34
2 34 35
2 35 36
2 36 37
2 37 38
2 38 39
2 39 40
2 40 41
2 41 42
2 42 43
2 43 44
2 44 45
2 45 46
2 46 47
2 47 48
2 48 49
2 49 50
2 50 51
2 51 52
2 52 53
2 53 54
2 54 55
2 55 56
2 56 57
2 57 58
2 58 59
2 59 60
2 60 61
2 61 62
2 62 63
2 63 64
2 64 65
2 65 66
2 66 67
2 67 68
2 68 69
2 69 70
2 70 71
2 71 72
2 72 73
2 73 74
2 74 75
2 75 76
2 76 77
2 77 78
2 78 79
2 79 80
2 80 81
2 81 82
2 82 83
2 83 84
2 84 85
2 85 86
2 86 87
2 87 88
2 88 89
2 89 90
2 90 91
2 91 92
2 92 93
2 93 94
2 94 95
2 95 96
2 96 97
2 97 98
2 98 99
2 99 100
2 100 101
2 101 102
2 102 103
2 103 104
2 104 105
2 105 106
2 106 107
2 107 108
2 108 109
2 109 110
2 110 111
2 111 112
2 112 113
2 113 114
2 114 115
2 115 116
2 116 117
2 117 118
2 118 119
2 119 120
2 120 121
2 121 122
2 122 123
2 123 124
2 124 125
2 125 126
2 126 127
2 127 128
2 128 129
2 129 130
2 130 131
2 131 132
2 132 133
2 133 134
2 134 135
2 135 136
2 136 137
2 137 138
2 138 139
2 139 140
2 140 141
2 141 142
2 142 143
2 143 144
2 144 145
2 145 146
2 146 147
2 147 148
2 148 149
2 149 150
2 150 151
2 151 152
2 152 153
2 153 154
2 154 155
2 155 156
2 156 157
2 157 158
2 158 159
2 159 160
2 160 161
2 161 162
2 162 163
2 163 164
2 164 165
2 165 166
2 166 167
2 167 168
2 168 169
2 169 170
2 170 171
2 171 172
2 172 173
2 173 174
2 174 175
2 175 176
2 176 177
2 177 178
2 178 179
2 179 180
2 180 181
2 181 182
2 182 183
2 183 184
2 184 185
2 185 186
2 186 187
2 187 188
2 188 189
2 189 190
2 190 191
2 191 192
2 192 193
2 193 194
2 194 195
2 195 196
2 196 197
2 197 198
2 198 199
2 199 200
2 200 201
2 201 202
2 202 203
2 203 204
2 204 205
2 205 206
2 206 207
2 207 208
2 208 209
2 209 210
2 210 211
2 211 212
2 212 213
2 213 214
2 214 215
2 215 216
2 216 217
2 217 218
2 218 219
2 219 220
2 220 221
2 221 222
2 222 223
2 223 224
2 224 225
2 225 226
2 226 227
2 227 228
2 228 229
2 229 230
2 230 231
2 231 232
2 232 233
2 233 234
2 234 235
2 235 236
2 236 237
2 237 238
2 238 239
2 239 240
2 240 241
2 241 242
2 242 243
2 243 244
2 244 245
2 245 246
2 246 247
2 247 248
2 248 249
2 249 250
2 250 251
2 251 252
2 252 253
2 253 254
2 254 255
2 255 256
2 256 257
2 257 258
2 258 259
2 259 260
2 260 261
2 261 262
2 262 263
2 263 264
2 264 265
2 265 266
2 266 267
2 267 268
2 268 269
2 269 270
2 270 271
2 271 272
2 272 273
2 273 274
2 274 275
2 275 276
2 276 277
2 277 278
2 278 279
2 279 280
2 280 281
2 281 282
2 282 283
2 283 284
2 284 285
2 285 286
2 286 287
2 287 288
2 288 289
2 289 290
2 290 291
2 291 292
2 292 293
2 293 294
2 294 295
2 295 296
2 296 297
2 297 298
2 298 299
2 299 300
2 300 301
2 301 302
2 302 303
2 303 304
2 304 305
2 305 306
2 306 307
2 307 308
2 308 309
2 309 310
2 310 311
2 311 312
2 312 313
2 313 314
2 314 315
2 315 316
2 316 317
2 317 318
2 318 319
2 319 320
2 320 321
2 321 322
2 322 323
2 323 324
2 324 325
2 325 326
2 326 327
2 327 328
2 328 329
2 329 330
2 330 331
2 331 332
2 332 333
2 333 334
2 334 335
2 335 336
2 336 337
2 337 338
2 338 339
2 339 340
2 340 341
2 341 342
2 342 343
2 343 344
2 344 345
2 345 346
2 346 347
2 347 348
2 348 349


POINT_DATA 350
SCALARS a FLOAT 1
LOOKUP_TABLE default
0.0005894628
0.0005894628
0.0005894628
0.0005894628
0.0005894628
0.0005894628
0.0005894628
0.0005894628
0.0005894628
0.0005894628
0.0005894628
0.0005894628
0.0005894628
0.0005894628
0.0005894628
0.0005894628
0.0005894628
0.0005894628
0.0005894628
0.0005894628
0.0005894628
0.0005894628
0.0005894628
0.0005894628
0.0005894628
0.0005894628
0.0005894628
0.0005894628
0.0005894628
0.0005894628
0.0005894628
0.0005894628
0.0005894628
0.0005894628
0.0005894628
0.0005894628
0.0005894628
0.0005894628
0.0005894628
0.0005894628
0.0005894628
0.0005894628
0.0005894628
0.0005894628
0.0005894628
0.0005894628
0.0005894628
0.0005894628
0.0005894628
0.0005894628
0.0005894628
0.0005894628
0.0005894628
0.0005894628
0.0005894628
0.0005894628
0.0005894628
0.0005894628
0.0005894628
0.0005894628
0.0005894628
0.0005894628
0.0005894628
0.0005894628
0.0005894628
0.0005894628
0.0005894628
0.0005894628
0.0005894628
0.0005894628
0.0005894628
0.0005894628
0.0005894628
0.0005894628
0.0005894628
0.0005894628
0.0005894628
0.0005894628
0.0005894628
0.0005894628
0.0005894628
0.0005894628
0.0005894628
0.0005894628
0.0005894628
0.0005894628
0.0005894628
0.0005894628
0.0005894628
0.0005894628
0.0005894628
0.0005894628
0.0005894628
0.0005894628
0.0005894628
0.0005894628
0.0005894628
0.0005894628
0.0005894628
0.0005894628
0.0005894628
0.0005894628
0.0005894628
0.0005894628
0.0005894628
0.0005894628
0.0005894628
0.0005894628
0.0005894628
0.0005894628
0.0005894628
0.0005894628
0.0005894628
0.0005894628
0.0005894628
0.0005894628
0.0005894628
0.0005894628
0.0005894628
0.0005894628
0.0005894628
0.0005894628
0.0005894628
0.0005894628
0.0005894628
0.0005894628
0.0005894628
0.0005894628
0.0005894628
0.0005894628
0.0005894628
0.0005894628
0.0005894628
0.0005894628
0.0005894628
0.0005894628
0.0005894628
0.0005894628
0.0005894628
0.0005894628
0.0005894628
0.0005894628
0.0005894628
0.0005894628
0.0005894628
0.0005894628
0.0005894628
0.0005894628
0.0005894628
0.0005894628
0.0005894628
0.0005894628
0.0005894628
0.0005894628
0.0005894628
0.0005894628
0.0005894628
0.0005894628
0.0005894628
0.0005894628
0.0005894628
0.0005894628
0.0005894628
0.0005894628
0.0005894628
0.0005894628
0.0005894628
0.0005894628
0.0005894628
0.0005894628
0.0005894628
0.0005894628
0.0005894628
0.0005894628
0.0005894628
0.0005894628
0.0005894628
0.0005894628
0.0005894628
0.0005894628
0.0005894628
0.0005894628
0.0005894628
0.0005894628
0.0005894628
0.0005894628
0.0005894628
0.0005894628
0.0005894628
0.0005894628
0.0005894628
0.0005894628
0.0005894628
0.0005894628
0.0005894628
0.0005894628
0.0005894628
0.0005894628
0.0005894628
0.0005894628
0.0005894628
0.0005894628
0.0005894628
0.0005894628
0.0005894628
0.0005894628
0.0005894628
0.0005894628
0.0005894628
0.0005894628
0.0005894628
0.0005894628
0.0005894628
0.0005894628
0.0005894628
0.0005894628
0.0005894628
0.0005894628
0.0005894628
0.0005894628
0.0005894628
0.0005894628
0.0005894628
0.0005894628
0.0005894628
0.0005894628
0.0005894628
0.0005894628
0.0005894628
0.0005894628
0.0005894628
0.0005894628
0.0005894628
0.0005894628
0.0005894628
0.0005894628
0.0005894628
0.0005894628
0.0005894628
0.0005894628
0.0005894628
0.0005894628
0.0005894628
0.0005894628
0.0005894628
0.0005894628
0.0005894628
0.0005894628
0.0005894628
0.0005894628
0.0005894628
0.0005894628
0.0005894628
0.0005894628
0.0005894628
0.0005894628
0.0005894628
0.0005894628
0.0005894628
0.0005894628
0.0005894628
0.0005894628
0.0005894628
0.0005894628
0.0005894628
0.0005894628
0.0005894628
0.0005894628
0.0005894628
0.0005894628
0.0005894628
0.0005894628
0.0005894628
0.0005894628
0.0005894628
0.0005894628
0.0005894628
0.0005894628
0.0005894628
0.0005894628
0.0005894628
0.0005894628
0.0005894628
0.0005894628
0.0005894628
0.0005894628
0.0005894628
0.0005894628
0.0005894628
0.0005894628
0.0005894628
0.0005894628
0.0005894628
0.0005894628
0.0005894628
0.0005894628
0.0005894628
0.0005894628
0.0005894628
0.0005894628
0.0005894628
0.0005894628
0.0005894628
0.0005894628
0.0005894628
0.0005894628
0.0005894628
0.0005894628
0.0005894628
0.0005894628
0.0005894628
0.0005894628
0.0005894628
0.0005894628
0.0005894628
0.0005894628
0.0005894628
0.0005894628
0.0005894628
0.0005894628
0.0005894628
0.0005894628
0.0005894628
0.0005894628
0.0005894628
0.0005894628
0.0005894628
0.0005894628
0.0005894628
0.0005894628
0.0005894628
0.0005894628
0.0005894628
0.0005894628
0.0005894628
0.0005894628
0.0005894628
0.0005894628
0.0005894628
0.0005894628
0.0005894628
0.0005894628
0.0005894628
0.0005894628
0.0005894628
0.0005894628
0.0005894628
0.0005894628
0.0005894628
0.0005894628


SCALARS b FLOAT 1
LOOKUP_TABLE default
0.02357851
0.02357851
0.02357851
0.02357851
0.02357851
0.02357851
0.02357851
0.02357851
0.02357851
0.02357851
0.02357851
0.02357851
0.02357851
0.02357851
0.02357851
0.02357851
0.02357851
0.02357851
0.02357851
0.02357851
0.02357851
0.02357851
0.02357851
0.02357851
0.02357851
0.02357851
0.02357851
0.02357851
0.02357851
0.02357851
0.02357851
0.02357851
0.02357851
0.02357851
0.02357851
0.02357851
0.02357851
0.02357851
0.02357851
0.02357851
0.02357851
0.02357851
0.02357851
0.02357851
0.02357851
0.02357851
0.02357851
0.02357851
0.02357851
0.02357851
0.02357851
0.02357851
0.02357851
0.02357851
0.02357851
0.02357851
0.02357851
0.02357851
0.02357851
0.02357851
0.02357851
0.02357851
0.02357851
0.02357851
0.02357851
0.02357851
0.02357851
0.02357851
0.02357851
0.02357851
0.02357851
0.02357851
0.02357851
0.02357851
0.02357851
0.02357851
0.02357851
0.02357851
0.02357851
0.02357851
0.02357851
0.02357851
0.02357851
0.02357851
0.02357851
0.02357851
0.02357851
0.02357851
0.02357851
0.02357851
0.02357851
0.02357851
0.02357851
0.02357851
0.02357851
0.02357851
0.02357851
0.02357851
0.02357851
0.02357851
0.02357851
0.02357851
0.02357851
0.02357851
0.02357851
0.02357851
0.02357851
0.02357851
0.02357851
0.02357851
0.02357851
0.02357851
0.02357851
0.02357851
0.02357851
0.02357851
0.02357851
0.02357851
0.02357851
0.02357851
0.02357851
0.02357851
0.02357851
0.02357851
0.02357851
0.02357851
0.02357851
0.02357851
0.02357851
0.02357851
0.02357851
0.02357851
0.02357851
0.02357851
0.02357851
0.02357851
0.02357851
0.02357851
0.02357851
0.02357851
0.02357851
0.02357851
0.02357851
0.02357851
0.02357851
0.02357851
0.02357851
0.02357851
0.02357851
0.02357851
0.02357851
0.02357851
0.02357851
0.02357851
0.02357851
0.02357851
0.02357851
0.02357851
0.02357851
0.02357851
0.02357851
0.02357851
0.02357851
0.02357851
0.02357851
0.02357851
0.02357851
0.02357851
0.02357851
0.02357851
0.02357851
0.02357851
0.02357851
0.02357851
0.02357851
0.02357851
0.02357851
0.02357851
0.02357851
0.02357851
0.02357851
0.02357851
0.02357851
0.02357851
0.02357851
0.02357851
0.02357851
0.02357851
0.02357851
0.02357851
0.02357851
0.02357851
0.02357851
0.02357851
0.02357851
0.02357851
0.02357851
0.02357851
0.02357851
0.02357851
0.02357851
0.02357851
0.02357851
0.02357851
0.02357851
0.02357851
0.02357851
0.02357851
0.02357851
0.02357851
0.02357851
0.02357851
0.02357851
0.02357851
0.02357851
0.02357851
0.02357851
0.02357851
0.02357851
0.02357851
0.02357851
0.02357851
0.02357851
0.02357851
0.02357851
0.02357851
0.02357851
0.02357851
0.02357851
0.02357851
0.02357851
0.02357851
0.02357851
0.02357851
0.02357851
0.02357851
0.02357851
0.02357851
0.02357851
0.02357851
0.02357851
0.02357851
0.02357851
0.02357851
0.02357851
0.02357851
0.02357851
0.02357851
0.02357851
0.02357851
0.02357851
0.02357851
0.02357851
0.02357851
0.02357851
0.02357851
0.02357851
0.02357851
0.02357851
0.02357851
0.02357851
0.02357851
0.02357851
0.02357851
0.02357851
0.02357851
0.02357851
0.02357851
0.02357851
0.02357851
0.02357851
0.02357851
0.02357851
0.02357851
0.02357851
0.02357851
0.02357851
0.02357851
0.02357851
0.02357851
0.02357851
0.02357851
0.02357851
0.02357851
0.02357851
0.02357851
0.02357851
0.02357851
0.02357851
0.02357851
0.02357851
0.02357851
0.02357851
0.02357851
0.02357851
0.02357851
0.02357851
0.02357851
0.02357851
0.02357851
0.02357851
0.02357851
0.02357851
0.02357851
0.02357851
0.02357851
0.02357851
0.02357851
0.02357851
0.02357851
0.02357851
0.02357851
0.02357851
0.02357851
0.02357851
0.02357851
0.02357851
0.02357851
0.02357851
0.02357851
0.02357851
0.02357851
0.02357851
0.02357851
0.02357851
0.02357851
0.02357851
0.02357851
0.02357851
0.02357851
0.02357851
0.02357851
0.02357851
0.02357851
0.02357851
0.02357851
0.02357851
0.02357851
0.02357851
0.02357851
0.02357851
0.02357851
0.02357851
0.02357851
0.02357851
0.02357851
0.02357851
0.02357851
0.02357851
0.02357851


VECTORS d1 FLOAT
0 0.9440315 -0.3298554
-0.009509859 0.9454546 -0.325615
-0.01901295 0.9467674 -0.3213564
-0.02850822 0.9479702 -0.3170801
-0.03799463 0.9490631 -0.3127869
-0.04747114 0.9500464 -0.3084775
-0.05693674 0.9509203 -0.3041525
-0.0663904 0.9516851 -0.2998128
-0.07583112 0.9523411 -0.295459
-0.08525791 0.9528886 -0.2910917
-0.09466978 0.9533279 -0.2867117
-0.1040657 0.9536592 -0.2823197
-0.1134448 0.953883 -0.2779164
-0.1228061 0.9539995 -0.2735024
-0.1321486 0.9540092 -0.2690784
-0.1414713 0.9539124 -0.2646451
-0.1507734 0.9537094 -0.2602032
-0.160054 0.9534007 -0.2557534
-0.169312 0.9529867 -0.2512964
-0.1785467 0.9524677 -0.2468328
-0.187757 0.9518442 -0.2423632
-0.1969423 0.9511166 -0.2378885
-0.2061014 0.9502854 -0.2334091
-0.2152337 0.949351 -0.2289259
-0.2243382 0.9483139 -0.2244394
-0.2334142 0.9471746 -0.2199503
-0.2424607 0.9459335 -0.2154592
-0.2514769 0.9445911 -0.2109669
-0.2604621 0.9431479 -0.2064739
-0.2694154 0.9416045 -0.201981
-0.2783361 0.9399613 -0.1974887
-0.2872233 0.9382189 -0.1929976
-0.2960763 0.9363778 -0.1885085
-0.3048944 0.9344385 -0.1840218
-0.3136767 0.9324017 -0.1795384
-0.3224225 0.9302678 -0.1750587
-0.3311312 0.9280374 -0.1705835
-0.3398019 0.9257111 -0.1661132
-0.3484339 0.9232895 -0.1616486
-0.3570267 0.9207732 -0.1571902
-0.3655793 0.9181627 -0.1527386
-0.3740913 0.9154586 -0.1482944
-0.3825619 0.9126616 -0.1438583
-0.3909904 0.9097723 -0.1394307
-0.3993762 0.9067912 -0.1350124
-0.4077187 0.9037191 -0.1306038
-0.4160172 0.9005564 -0.1262055
-0.424271 0.897304 -0.1218182
-0.4324797 0.8939623 -0.1174423
-0.4406425 0.8905321 -0.1130785
-0.4487589 0.887014 -0.1087273
-0.4568282 0.8834087 -0.1043892
-0.46485 0.8797167 -0.1000649
-0.4728236 0.8759388 -0.09575474
-0.4807485 0.8720757 -0.09145939
-0.4886241 0.868128 -0.08717935
-0.49645 0.8640963 -0.08291514
-0.5042255 0.8599815 -0.07866731
-0.5119501 0.855784 -0.07443636
-0.5196234 0.8515047 -0.0702228
-0.5272447 0.8471443 -0.06602716
-0.5348138 0.8427033 -0.06184993
-0.5423299 0.8381825 -0.05769161
-0.5497927 0.8335827 -0.0535527
-0.5572018 0.8289044 -0.04943369
-0.5645565 0.8241485 -0.04533506
-0.5718565 0.8193155 -0.0412573
-0.5791014 0.8144063 -0.03720087
-0.5862907 0.8094215 -0.03316626
-0.5934239 0.8043619 -0.02915392
-0.6005007 0.7992282 -0.02516432
-0.6075207 0.794021 -0.02119791
-0.6144834 0.7887411 -0.01725515
-0.6213884 0.7833892 -0.01333647
-0.6282354 0.777966 -0.009442321
-0.6350239 0.7724724 -0.005573139
-0.6417537 0.7669089 -0.001729353
-0.6484243 0.7612763 0.002088611
-0.6550354 0.7555753 0.005880332
-0.6615866 0.7498067 0.009645394
-0.6680776 0.7439712 0.01338339
-0.674508 0.7380696 0.0170939
-0.6808776 0.7321024 0.02077654
-0.687186 0.7260706 0.0244309
-0.6934329 0.7199748 0.0280566
-0.6996179 0.7138157 0.03165325
-0.7057408 0.7075941 0.03522047
-0.7118013 0.7013107 0.03875787
-0.7177991 0.6949663 0.0422651
-0.7237339 0.6885615 0.04574178
-0.7296054 0.6820972 0.04918755
-0.7354134 0.6755739 0.05260205
-0.7411576 0.6689926 0.05598494
-0.7468377 0.6623539 0.05933586
-0.7524536 0.6556585 0.06265447
-0.7580048 0.6489072 0.06594043
-0.7634913 0.6421007 0.06919342
-0.7689128 0.6352397 0.0724131
-0.774269 0.628325 0.07559915
-0.7795597 0.6213574 0.07875125
-0.7847847 0.6143374 0.08186909
-0.7899438 0.6072659 0.08495236
-0.7950368 0.6001436 0.08800075
-0.8000635 0.5929712 0.09101397
-0.8050236 0.5857495 0.09399172
-0.8099171 0.5784792 0.09693371
-0.8147437 0.5711609 0.09983965
-0.8195032 0.5637955 0.1027093
-0.8241954 0.5563837 0.1055423
-0.8288202 0.5489261 0.1083384
-0.8333774 0.5414235 0.1110974
-0.8378669 0.5338767 0.113819
-0.8422884 0.5262863 0.1165029
-0.8466419 0.518653 0.1191489
-0.8509272 0.5109777 0.1217568
-0.8551441 0.503261 0.1243262
-0.8592924 0.4955036 0.126857
-0.8633722 0.4877062 0.1293489
-0.8673831 0.4798696 0.1318017
-0.8713251 0.4719945 0.1342152
-0.8751981 0.4640816 0.136589
-0.8790019 0.4561315 0.1389231
-0.8827365 0.4481451 0.1412172
-0.8864016 0.440123 0.1434711
-0.8899972 0.4320659 0.1456846
-0.8935232 0.4239746 0.1478574
-0.8969795 0.4158497 0.1499895
-0.9003659 0.407692 0.1520806
-0.9036824 0.3995021 0.1541304
-0.9069289 0.3912808 0.1561389
-0.9101052 0.3830287 0.1581059
-0.9132114 0.3747466 0.1600311
-0.9162472 0.3664352 0.1619144
-0.9192127 0.3580951 0.1637557
-0.9221077 0.3497271 0.1655547
-0.9249321 0.3413319 0.1673113
-0.927686 0.3329101 0.1690254
-0.9303691 0.3244625 0.1706968
-0.9329815 0.3159897 0.1723254
-0.935523 0.3074924 0.173911
-0.9379937 0.2989714 0.1754535
-0.9403934 0.2904273 0.1769527
-0.942722 0.2818608 0.1784086
-0.9449796 0.2732727 0.1798209
-0.9471661 0.2646635 0.1811897
-0.9492813 0.256034 0.1825146
-0.9513253 0.2473848 0.1837958
-0.953298 0.2387167 0.1850329
-0.9551994 0.2300303 0.186226
-0.9570294 0.2213264 0.1873749
-0.958788 0.2126056 0.1884795
-0.960475 0.2038685 0.1895398
-0.9620906 0.1951159 0.1905556
-0.9636347 0.1863484 0.1915268
-0.9651071 0.1775668 0.1924534
-0.9665079 0.1687717 0.1933354
-0.9678371 0.1599637 0.1941725
-0.9690946 0.1511436 0.1949648
-0.9702804 0.1423121 0.1957122
-0.9713944 0.1334698 0.1964145
-0.9724367 0.1246174 0.1970719
-0.9734072 0.1157555 0.1976842
-0.9743059 0.1068849 0.1982513
-0.9751328 0.09800618 0.1987732
-0.9758879 0.08912008 0.1992499
-0.976571 0.08022725 0.1996813
-0.9771823 0.07132836 0.2000673
-0.9777218 0.06242409 0.2004081
-0.9781893 0.0535151 0.2007035
-0.9785849 0.04460209 0.2009534
-0.9789086 0.0356857 0.201158
-0.9791603 0.02676663 0.2013171
-0.9793402 0.01784554 0.2014307
-0.9794481 0.008923107 0.2014989
-0.9794841 1.849909e-14 0.2015217
-0.9794481 -0.008923107 0.2014989
-0.9793402 -0.01784554 0.2014307
-0.9791603 -0.02676663 0.2013171
-0.9789086 -0.0356857 0.201158
-0.9785849 -0.04460209 0.2009534
-0.9781893 -0.0535151 0.2007035
-0.9777218 -0.06242409 0.2004081
-0.9771823 -0.07132836 0.2000673
-0.976571 -0.08022725 0.1996813
-0.9758879 -0.08912008 0.1992499
-0.9751328 -0.09800618 0.1987732
-0.9743059 -0.1068849 0.1982513
-0.9734072 -0.1157555 0.1976842
-0.9724367 -0.1246174 0.1970719
-0.9713944 -0.1334698 0.1964145
-0.9702804 -0.1423121 0.1957122
-0.9690946 -0.1511436 0.1949648
-0.9678371 -0.1599637 0.1941725
-0.9665079 -0.1687717 0.1933354
-0.9651071 -0.1775668 0.1924534
-0.9636347 -0.1863484 0.1915268
-0.9620906 -0.1951159 0.1905556
-0.960475 -0.2038685 0.1895398
-0.958788 -0.2126056 0.1884795
-0.9570294 -0.2213264 0.1873749
-0.9551994 -0.2300303 0.186226
-0.953298 -0.2387167 0.1850329
-0.9513253 -0.2473848 0.1837958
-0.9492813 -0.256034 0.1825146
-0.9471661 -0.2646635 0.1811897
-0.9449796 -0.2732727 0.1798209
-0.942722 -0.2818608 0.1784086
-0.9403934 -0.2904273 0.1769527
-0.9379937 -0.2989714 0.1754535
-0.935523 -0.3074924 0.173911
-0.9329815 -0.3159897 0.1723254
-0.9303691 -0.3244625 0.1706968
-0.927686 -0.3329101 0.1690254