# vtk DataFile Version 2.0
Written badly by Kevin Korner
ASCII
DATASET POLYDATA
POINTS 350 FLOAT
0 0 0
0.00286533 0 0
0.005730526 2.556076e-05 -1.040865e-05
0.008595324 7.671605e-05 -3.108559e-05
0.01145946 0.0001534962 -6.188993e-05
0.01432267 0.0002559281 -0.0001026803
0.01718468 0.0003840353 -0.0001533148
0.02004525 0.0005378379 -0.0002136512
0.02290409 0.0007173527 -0.0002835467
0.02576096 0.0009225932 -0.0003628584
0.02861559 0.001153569 -0.0004514428
0.03146772 0.001410288 -0.0005491561
0.0343171 0.001692753 -0.0006558543
0.03716346 0.002000965 -0.0007713931
0.04000655 0.00233492 -0.000895628
0.04284611 0.002694612 -0.001028414
0.04568189 0.003080033 -0.001169606
0.04851362 0.003491169 -0.00131906
0.05134107 0.003928005 -0.001476629
0.05416398 0.004390522 -0.00164217
0.05698209 0.004878698 -0.001815535
0.05979515 0.005392509 -0.001996579
0.06260292 0.005931926 -0.002185158
0.06540515 0.006496919 -0.002381125
0.06820159 0.007087453 -0.002584335
0.070992 0.007703492 -0.002794643
0.07377613 0.008344996 -0.003011902
0.07655374 0.009011922 -0.003235968
0.07932459 0.009704224 -0.003466696
0.08208844 0.01042185 -0.003703939
0.08484504 0.01116476 -0.003947554
0.08759416 0.01193289 -0.004197396
0.09033557 0.01272618 -0.004453319
0.09306902 0.01354458 -0.004715179
0.09579429 0.01438802 -0.004982833
0.09851113 0.01525644 -0.005256137
0.1012193 0.01614977 -0.005534946
0.1039187 0.01706793 -0.005819118
0.1066089 0.01801087 -0.00610851
0.1092897 0.01897849 -0.006402978
0.1119611 0.01997073 -0.006702382
0.1146226 0.02098749 -0.007006578
0.1172741 0.02202871 -0.007315426
0.1199154 0.02309429 -0.007628784
0.1225463 0.02418414 -0.007946511
0.1251665 0.02529817 -0.008268469
0.1277758 0.02643629 -0.008594516
0.130374 0.02759841 -0.008924514
0.1329609 0.02878442 -0.009258324
0.1355363 0.02999423 -0.009595808
0.1380999 0.03122773 -0.009936828
0.1406516 0.03248482 -0.01028125
0.1431912 0.03376539 -0.01062893
0.1457184 0.03506933 -0.01097974
0.148233 0.03639653 -0.01133354
0.1507349 0.03774688 -0.0116902
0.1532239 0.03912026 -0.01204958
0.1556996 0.04051655 -0.01241155
0.1581621 0.04193563 -0.01277598
0.1606109 0.04337739 -0.01314273
0.1630461 0.04484169 -0.01351168
0.1654672 0.04632841 -0.01388269
0.1678743 0.04783742 -0.01425563
0.170267 0.04936859 -0.01463037
0.1726453 0.0509218 -0.0150068
0.1750088 0.05249689 -0.01538477
0.1773575 0.05409375 -0.01576416
0.1796911 0.05571223 -0.01614485
0.1820094 0.0573522 -0.0165267
0.1843124 0.0590135 -0.01690961
0.1865997 0.060696 -0.01729343
0.1888713 0.06239955 -0.01767806
0.1911269 0.06412401 -0.01806336
0.1933665 0.06586923 -0.01844922
0.1955897 0.06763505 -0.01883551
0.1977965 0.06942133 -0.01922212
0.1999866 0.07122791 -0.01960893
0.20216 0.07305464 -0.01999582
0.2043164 0.07490135 -0.02038268
0.2064557 0.0767679 -0.02076938
0.2085777 0.07865412 -0.02115582
0.2106823 0.08055985 -0.02154187
0.2127693 0.08248492 -0.02192744
0.2148385 0.08442918 -0.0223124
0.2168899 0.08639246 -0.02269664
0.2189232 0.08837459 -0.02308006
0.2209383 0.09037539 -0.02346255
0.222935 0.09239471 -0.02384399
0.2249132 0.09443236 -0.02422428
0.2268728 0.09648819 -0.02460332
0.2288137 0.098562 -0.024981
0.2307355 0.1006536 -0.02535721
0.2326384 0.1027629 -0.02573186
0.234522 0.1048896 -0.02610483
0.2363863 0.1070336 -0.02647604
0.2382311 0.1091947 -0.02684538
0.2400563 0.1113728 -0.02721275
0.2418617 0.1135675 -0.02757806
0.2436473 0.1157789 -0.0279412
0.2454129 0.1180065 -0.02830209
0.2471584 0.1202504 -0.02866062
0.2488836 0.1225102 -0.02901671
0.2505885 0.1247859 -0.02937026
0.2522728 0.1270772 -0.02972119
0.2539366 0.1293838 -0.03006939
0.2555796 0.1317058 -0.03041479
0.2572018 0.1340427 -0.0307573
0.258803 0.1363945 -0.03109682
0.2603831 0.1387609 -0.03143328
0.2619421 0.1411418 -0.03176659
0.2634798 0.143537 -0.03209666
0.2649961 0.1459462 -0.03242342
0.2664909 0.1483692 -0.03274679
0.267964 0.1508059 -0.03306667
0.2694155 0.1532561 -0.033383
0.2708452 0.1557195 -0.0336957
0.2722529 0.158196 -0.0340047
0.2736386 0.1606853 -0.03430991
0.2750023 0.1631872 -0.03461126
0.2763437 0.1657016 -0.03490869
0.2776629 0.1682283 -0.03520211
0.2789597 0.1707669 -0.03549147
0.280234 0.1733174 -0.03577668
0.2814857 0.1758795 -0.03605769
0.2827149 0.1784529 -0.03633443
0.2839213 0.1810376 -0.03660683
0.2851049 0.1836333 -0.03687482
0.2862656 0.1862397 -0.03713835
0.2874033 0.1888567 -0.03739735
0.288518 0.191484 -0.03765177
0.2896096 0.1941214 -0.03790154
0.290678 0.1967688 -0.0381466
0.2917231 0.1994259 -0.03838691
0.2927449 0.2020925 -0.03862239
0.2937433 0.2047683 -0.03885301
0.2947182 0.2074532 -0.0390787
0.2956696 0.2101469 -0.03929942
0.2965974 0.2128493 -0.03951511
0.2975016 0.2155601 -0.03972573
0.298382 0.218279 -0.03993122
0.2992386 0.221006 -0.04013155
0.3000714 0.2237407 -0.04032666
0.3008803 0.2264829 -0.04051651
0.3016652 0.2292324 -0.04070106
0.3024262 0.231989 -0.04088026
0.3031631 0.2347525 -0.04105409
0.3038759 0.2375226 -0.04122249
0.3045646 0.2402992 -0.04138543
0.305229 0.243082 -0.04154288
0.3058693 0.2458707 -0.04169479
0.3064852 0.2486652 -0.04184114
0.3070769 0.2514653 -0.04198189
0.3076442 0.2542707 -0.04211701
0.308187 0.2570811 -0.04224647
0.3087055 0.2598964 -0.04237024
0.3091995 0.2627164 -0.0424883
0.309669 0.2655407 -0.04260062
0.3101139 0.2683693 -0.04270717
0.3105343 0.2712018 -0.04280793
0.3109301 0.2740381 -0.04290288
0.3113013 0.2768779 -0.04299199
0.3116479 0.279721 -0.04307525
0.3119698 0.2825671 -0.04315265
0.312267 0.2854161 -0.04322415
0.3125396 0.2882677 -0.04328975
0.3127874 0.2911216 -0.04334943
0.3130104 0.2939778 -0.04340319
0.3132088 0.2968358 -0.043451
0.3133823 0.2996956 -0.04349285
0.3135311 0.3025568 -0.04352875
0.3136551 0.3054193 -0.04355867
0.3137543 0.3082828 -0.04358262
0.3138288 0.3111471 -0.04360058
0.3138784 0.314012 -0.04361256
0.3139032 0.3168772 -0.04361855
0.3139032 0.3197426 -0.04361855
0.3138784 0.3226078 -0.04361256
0.3138288 0.3254726 -0.04360058
0.3137543 0.3283369 -0.04358262
0.3136551 0.3312005 -0.04355867
0.3135311 0.3340629 -0.04352875
0.3133823 0.3369242 -0.04349285
0.3132088 0.3397839 -0.043451
0.3130104 0.342642 -0.04340319
0.3127874 0.3454981 -0.04334943
0.3125396 0.3483521 -0.04328975
0.312267 0.3512037 -0.04322415
0.3119698 0.3540527 -0.04315265
0.3116479 0.3568988 -0.04307525
0.3113013 0.3597419 -0.04299199
0.3109301 0.3625817 -0.04290288
0.3105343 0.3654179 -0.04280793
0.3101139 0.3682505 -0.04270717
0.309669 0.371079 -0.04260062
0.3091995 0.3739034 -0.0424883
0.3087055 0.3767234 -0.04237024
0.308187 0.3795387 -0.04224647
0.3076442 0.3823491 -0.04211701
0.3070769 0.3851545 -0.04198189
0.3064852 0.3879545 -0.04184114
0.3058693 0.390749 -0.04169479
0.305229 0.3935378 -0.04154288
0.3045646 0.3963206 -0.04138543
0.3038759 0.3990971 -0.04122249
0.3031631 0.4018673 -0.04105409
0.3024262 0.4046307 -0.04088026
0.3016652 0.4073874 -0.04070106
0.3008803 0.4101369 -0.04051651
0.3000714 0.4128791 -0.04032666
0.2992386 0.4156138 -0.04013155
0.298382 0.4183407 -0.03993122
0.2975016 0.4210597 -0.03972573
0.2965974 0.4237705 -0.03951511
0.2956696 0.4264728 -0.03929942
0.2947182 0.4291666 -0.0390787
0.2937433 0.4318515 -0.03885301
0.2927449 0.4345273 -0.03862239
0.2917231 0.4371939 -0.03838691
0.290678 0.439851 -0.0381466
0.2896096 0.4424983 -0.03790154
0.288518 0.4451358 -0.03765177
0.2874033 0.4477631 -0.03739735
0.2862656 0.4503801 -0.03713835
0.2851049 0.4529865 -0.03687482
0.2839213 0.4555822 -0.03660683
0.2827149 0.4581668 -0.03633443
0.2814857 0.4607403 -0.03605769
0.280234 0.4633024 -0.03577668
0.2789597 0.4658529 -0.03549147
0.2776629 0.4683915 -0.03520211
0.2763437 0.4709181 -0.03490869
0.2750023 0.4734325 -0.03461126
0.2736386 0.4759345 -0.03430991
0.2722529 0.4784238 -0.0340047
0.2708452 0.4809003 -0.0336957
0.2694155 0.4833637 -0.033383
0.267964 0.4858138 -0.03306667
0.2664909 0.4882506 -0.03274679
0.2649961 0.4906736 -0.03242342
0.2634798 0.4930828 -0.03209666
0.2619421 0.4954779 -0.03176659
0.2603831 0.4978588 -0.03143328
0.258803 0.5002253 -0.03109682
0.2572018 0.5025771 -0.0307573
0.2555796 0.504914 -0.03041479
0.2539366 0.5072359 -0.03006939
0.2522728 0.5095426 -0.02972119
0.2505885 0.5118339 -0.02937026
0.2488836 0.5141095 -0.02901671
0.2471584 0.5163694 -0.02866062
0.2454129 0.5186132 -0.02830209
0.2436473 0.5208409 -0.0279412
0.2418617 0.5230522 -0.02757806
0.2400563 0.525247 -0.02721275
0.2382311 0.527425 -0.02684538
0.2363863 0.5295861 -0.02647604
0.234522 0.5317301 -0.02610483
0.2326384 0.5338569 -0.02573186
0.2307355 0.5359661 -0.02535721
0.2288137 0.5380578 -0.024981
0.2268728 0.5401316 -0.02460332
0.2249132 0.5421874 -0.02422428
0.222935 0.5442251 -0.02384399
0.2209383 0.5462444 -0.02346255
0.2189232 0.5482452 -0.02308006
0.2168899 0.5502273 -0.02269664
0.2148385 0.5521906 -0.0223124
0.2127693 0.5541348 -0.02192744
0.2106823 0.5560599 -0.02154187
0.2085777 0.5579657 -0.02115582
0.2064557 0.5598519 -0.02076938
0.2043164 0.5617184 -0.02038268
0.20216 0.5635651 -0.01999582
0.1999866 0.5653919 -0.01960893
0.1977965 0.5671984 -0.01922212
0.1955897 0.5689847 -0.01883551
0.1933665 0.5707505 -0.01844922
0.1911269 0.5724958 -0.01806336
0.1888713 0.5742202 -0.01767806
0.1865997 0.5759238 -0.01729343
0.1843124 0.5776063 -0.01690961
0.1820094 0.5792676 -0.0165267
0.1796911 0.5809075 -0.01614485
0.1773575 0.582526 -0.01576416
0.1750088 0.5841229 -0.01538477
0.1726453 0.585698 -0.0150068
0.170267 0.5872512 -0.01463037
0.1678743 0.5887824 -0.01425563
0.1654672 0.5902914 -0.01388269
0.1630461 0.5917781 -0.01351168
0.1606109 0.5932424 -0.01314273
0.1581621 0.5946841 -0.01277598
0.1556996 0.5961032 -0.01241155
0.1532239 0.5974995 -0.01204958
0.1507349 0.5988729 -0.0116902
0.148233 0.6002232 -0.01133354
0.1457184 0.6015504 -0.01097974
0.1431912 0.6028544 -0.01062893
0.1406516 0.604135 -0.01028125
0.1380999 0.605392 -0.009936828
0.1355363 0.6066255 -0.009595808
0.1329609 0.6078354 -0.009258324
0.130374 0.6090214 -0.008924514
0.1277758 0.6101835 -0.008594516
0.1251665 0.6113216 -0.008268469
0.1225463 0.6124356 -0.007946511
0.1199154 0.6135255 -0.007628784
0.1172741 0.6145911 -0.007315426
0.1146226 0.6156323 -0.007006578
0.1119611 0.616649 -0.006702382
0.1092897 0.6176413 -0.006402978
0.1066089 0.6186089 -0.00610851
0.1039187 0.6195518 -0.005819118
0.1012193 0.62047 -0.005534946
0.09851113 0.6213633 -0.005256137
0.09579429 0.6222318 -0.004982833
0.09306902 0.6230752 -0.004715179
0.09033557 0.6238936 -0.004453319
0.08759416 0.6246869 -0.004197396
0.08484504 0.625455 -0.003947554
0.08208844 0.6261979 -0.003703939
0.07932459 0.6269155 -0.003466696
0.07655374 0.6276079 -0.003235968
0.07377613 0.6282748 -0.003011902
0.070992 0.6289163 -0.002794643
0.06820159 0.6295323 -0.002584335
0.06540515 0.6301229 -0.002381125
0.06260292 0.6306878 -0.002185158
0.05979515 0.6312273 -0.001996579
0.05698209 0.6317411 -0.001815535
0.05416398 0.6322293 -0.00164217
0.05134107 0.6326918 -0.001476629
0.04851362 0.6331286 -0.00131906
0.04568189 0.6335397 -0.001169606
0.04284611 0.6339252 -0.001028414
0.04000655 0.6342849 -0.000895628
0.03716346 0.6346188 -0.0007713931
0.0343171 0.634927 -0.0006558543
0.03146772 0.6352095 -0.0005491561
0.02861559 0.6354662 -0.0004514428
0.02576096 0.6356972 -0.0003628584
0.02290409 0.6359024 -0.0002835467
0.02004525 0.6360819 -0.0002136512
0.01718468 0.6362357 -0.0001533148
0.01432267 0.6363638 -0.0001026803
0.01145946 0.6364663 -6.188993e-05
0.008595324 0.6365431 -3.108559e-05
0.005730526 0.6365942 -1.040865e-05
0.00286533 0.6366198 0
0 0.6366198 0

LINES 349 1047
2 0 1
2 1 2
2 2 3
2 3 4
2 4 5
2 5 6
2 6 7
2 7 8
2 8 9
2 9 10
2 10 11
2 11 12
2 12 13
2 13 14
2 14 15
2 15 16
2 16 17
2 17 18
2 18 19
2 19 20
2 20 21
2 21 22
2 22 23
2 23 24
2 24 25
2 25 26
2 26 27
2 27 28
2 28 29
2 29 30
2 30 31
2 31 32
2 32 33
2 33 34
2 34 35
2 35 36
2 36 37
2 37 38
2 38 39
2 39 40
2 40 41
2 41 42
2 42 43
2 43 44
2 44 45
2 45 46
2 46 47
2 47 48
2 48 49
2 49 50
2 50 51
2 51 52
2 52 53
2 53 54
2 54 55
2 55 56
2 56 57
2 57 58
2 58 59
2 59 60
2 60 61
2 61 62
2 62 63
2 63 64
2 64 65
2 65 66
2 66 67
2 67 68
2 68 69
2 69 70
2 70 71
2 71 72
2 72 73
2 73 74
2 74 75
2 75 76
2 76 77
2 77 78
2 78 79
2 79 80
2 80 81
2 81 82
2 82 83
2 83 84
2 84 85
2 85 86
2 86 87
2 87 88
2 88 89
2 89 90
2 90 91
2 91 92
2 92 93
2 93 94
2 94 95
2 95 96
2 96 97
2 97 98
2 98 99
2 99 100
2 100 101
2 101 102
2 102 103
2 103 104
2 104 105
2 105 106
2 106 107
2 107 108
2 108 109
2 109 110
2 110 111
2 111 112
2 112 113
2 113 114
2 114 115
2 115 116
2 116 117
2 117 118
2 118 119
2 119 120
2 120 121
2 121 122
2 122 123
2 123 124
2 124 125
2 125 126
2 126 127
2 127 128
2 128 129
2 129 130
2 130 131
2 131 132
2 132 133
2 133 134
2 134 135
2 135 136
2 136 137
2 137 138
2 138 139
2 139 140
2 140 141
2 141 142
2 142 143
2 143 144
2 144 145
2 145 146
2 146 147
2 147 148
2 148 149
2 149 150
2 150 151
2 151 152
2 152 153
2 153 154
2 154 155
2 155 156
2 156 157
2 157 158
2 158 159
2 159 160
2 160 161
2 161 162
2 162 163
2 163 164
2 164 165
2 165 166
2 166 167
2 167 168
2 168 169
2 169 170
2 170 171
2 171 172
2 172 173
2 173 174
2 174 175
2 175 176
2 176 177
2 177 178
2 178 179
2 179 180
2 180 181
2 181 182
2 182 183
2 183 184
2 184 185
2 185 186
2 186 187
2 187 188
2 188 189
2 189 190
2 190 191
2 191 192
2 192 193
2 193 194
2 194 195
2 195 196
2 196 197
2 197 198
2 198 199
2 199 200
2 200 201
2 201 202
2 202 203
2 203 204
2 204 205
2 205 206
2 206 207
2 207 208
2 208 209
2 209 210
2 210 211
2 211 212
2 212 213
2 213 214
2 214 215
2 215 216
2 216 217
2 217 218
2 218 219
2 219 220
2 220 221
2 221 222
2 222 223
2 223 224
2 224 225
2 225 226
2 226 227
2 227 228
2 228 229
2 229 230
2 230 231
2 231 232
2 232 233
2 233 234
2 234 235
2 235 236
2 236 237
2 237 238
2 238 239
2 239 240
2 240 241
2 241 242
2 242 243
2 243 244
2 244 245
2 245 246
2 246 247
2 247 248
2 248 249
2 249 250
2 250 251
2 251 252
2 252 253
2 253 254
2 254 255
2 255 256
2 256 257
2 257 258
2 258 259
2 259 260
2 260 261
2 261 262
2 262 263
2 263 264
2 264 265
2 265 266
2 266 267
2 267 268
2 268 269
2 269 270
2 270 271
2 271 272
2 272 273
2 273 274
2 274 275
2 275 276
2 276 277
2 277 278
2 278 279
2 279 280
2 280 281
2 281 282
2 282 283
2 283 284
2 284 285
2 285 286
2 286 287
2 287 288
2 288 289
2 289 290
2 290 291
2 291 292
2 292 293
2 293 294
2 294 295
2 295 296
2 296 297
2 297 298
2 298 299
2 299 300
2 300 301
2 301 302
2 302 303
2 303 304
2 304 305
2 305 306
2 306 307
2 307 308
2 308 309
2 309 310
2 310 311
2 311 312
2 312 313
2 313 314
2 314 315
2 315 316
2 316 317
2 317 318
2 318 319
2 319 320
2 320 321
2 321 322
2 322 323
2 323 324
2 324 325
2 325 326
2 326 327
2 327 328
2 328 329
2 329 330
2 330 331
2 331 332
2 332 333
2 333 334
2 334 335
2 335 336
2 336 337
2 337 338
2 338 339
2 339 340
2 340 341
2 341 342
2 342 343
2 343 344
2 344 345
2 345 346
2 346 347
2 347 348
2 348 349


POINT_DATA 350
SCALARS a FLOAT 1
LOOKUP_TABLE default
0.0005894628
0.0005894628
0.0005894628
0.0005894628
0.0005894628
0.0005894628
0.0005894628
0.0005894628
0.0005894628
0.0005894628
0.0005894628
0.0005894628
0.0005894628
0.0005894628
0.0005894628
0.0005894628
0.0005894628
0.0005894628
0.0005894628
0.0005894628
0.0005894628
0.0005894628
0.0005894628
0.0005894628
0.0005894628
0.0005894628
0.0005894628
0.0005894628
0.0005894628
0.0005894628
0.0005894628
0.0005894628
0.0005894628
0.0005894628
0.0005894628
0.0005894628
0.0005894628
0.0005894628
0.0005894628
0.0005894628
0.0005894628
0.0005894628
0.0005894628
0.0005894628
0.0005894628
0.0005894628
0.0005894628
0.0005894628
0.0005894628
0.0005894628
0.0005894628
0.0005894628
0.0005894628
0.0005894628
0.0005894628
0.0005894628
0.0005894628
0.0005894628
0.0005894628
0.0005894628
0.0005894628
0.0005894628
0.0005894628
0.0005894628
0.0005894628
0.0005894628
0.0005894628
0.0005894628
0.0005894628
0.0005894628
0.0005894628
0.0005894628
0.0005894628
0.0005894628
0.0005894628
0.0005894628
0.0005894628
0.0005894628
0.0005894628
0.0005894628
0.0005894628
0.0005894628
0.0005894628
0.0005894628
0.0005894628
0.0005894628
0.0005894628
0.0005894628
0.0005894628
0.0005894628
0.0005894628
0.0005894628
0.0005894628
0.0005894628
0.0005894628
0.0005894628
0.0005894628
0.0005894628
0.0005894628
0.0005894628
0.0005894628
0.0005894628
0.0005894628
0.0005894628
0.0005894628
0.0005894628
0.0005894628
0.0005894628
0.0005894628
0.0005894628
0.0005894628
0.0005894628
0.0005894628
0.0005894628
0.0005894628
0.0005894628
0.0005894628
0.0005894628
0.0005894628
0.0005894628
0.0005894628
0.0005894628
0.0005894628
0.0005894628
0.0005894628
0.0005894628
0.0005894628
0.0005894628
0.0005894628
0.0005894628
0.0005894628
0.0005894628
0.0005894628
0.0005894628
0.0005894628
0.0005894628
0.0005894628
0.0005894628
0.0005894628
0.0005894628
0.0005894628
0.0005894628
0.0005894628
0.0005894628
0.0005894628
0.0005894628
0.0005894628
0.0005894628
0.0005894628
0.0005894628
0.0005894628
0.0005894628
0.0005894628
0.0005894628
0.0005894628
0.0005894628
0.0005894628
0.0005894628
0.0005894628
0.0005894628
0.0005894628
0.0005894628
0.0005894628
0.0005894628
0.0005894628
0.0005894628
0.0005894628
0.0005894628
0.0005894628
0.0005894628
0.0005894628
0.0005894628
0.0005894628
0.0005894628
0.0005894628
0.0005894628
0.0005894628
0.0005894628
0.0005894628
0.0005894628
0.0005894628
0.0005894628
0.0005894628
0.0005894628
0.0005894628
0.0005894628
0.0005894628
0.0005894628
0.0005894628
0.0005894628
0.0005894628
0.0005894628
0.0005894628
0.0005894628
0.0005894628
0.0005894628
0.0005894628
0.0005894628
0.0005894628
0.0005894628
0.0005894628
0.0005894628
0.0005894628
0.0005894628
0.0005894628
0.0005894628
0.0005894628
0.0005894628
0.0005894628
0.0005894628
0.0005894628
0.0005894628
0.0005894628
0.0005894628
0.0005894628
0.0005894628
0.0005894628
0.0005894628
0.0005894628
0.0005894628
0.0005894628
0.0005894628
0.0005894628
0.0005894628
0.0005894628
0.0005894628
0.0005894628
0.0005894628
0.0005894628
0.0005894628
0.0005894628
0.0005894628
0.0005894628
0.0005894628
0.0005894628
0.0005894628
0.0005894628
0.0005894628
0.0005894628
0.0005894628
0.0005894628
0.0005894628
0.0005894628
0.0005894628
0.0005894628
0.0005894628
0.0005894628
0.0005894628
0.0005894628
0.0005894628
0.0005894628
0.0005894628
0.0005894628
0.0005894628
0.0005894628
0.0005894628
0.0005894628
0.0005894628
0.0005894628
0.0005894628
0.0005894628
0.0005894628
0.0005894628
0.0005894628
0.0005894628
0.0005894628
0.0005894628
0.0005894628
0.0005894628
0.0005894628
0.0005894628
0.0005894628
0.0005894628
0.0005894628
0.0005894628
0.0005894628
0.0005894628
0.0005894628
0.0005894628
0.0005894628
0.0005894628
0.0005894628
0.0005894628
0.0005894628
0.0005894628
0.0005894628
0.0005894628
0.0005894628
0.0005894628
0.0005894628
0.0005894628
0.0005894628
0.0005894628
0.0005894628
0.0005894628
0.0005894628
0.0005894628
0.0005894628
0.0005894628
0.0005894628
0.0005894628
0.0005894628
0.0005894628
0.0005894628
0.0005894628
0.0005894628
0.0005894628
0.0005894628
0.0005894628
0.0005894628
0.0005894628
0.0005894628
0.0005894628
0.0005894628
0.0005894628
0.0005894628
0.0005894628
0.0005894628
0.0005894628
0.0005894628
0.0005894628
0.0005894628
0.0005894628
0.0005894628
0.0005894628
0.0005894628
0.0005894628
0.0005894628
0.0005894628
0.0005894628
0.0005894628
0.0005894628
0.0005894628
0.0005894628
0.0005894628
0.0005894628
0.0005894628
0.0005894628
0.0005894628
0.0005894628
0.0005894628
0.0005894628
0.0005894628
0.0005894628
0.0005894628
0.0005894628
0.0005894628
0.0005894628
0.0005894628
0.0005894628


SCALARS b FLOAT 1
LOOKUP_TABLE default
0.02357851
0.02357851
0.02357851
0.02357851
0.02357851
0.02357851
0.02357851
0.02357851
0.02357851
0.02357851
0.02357851
0.02357851
0.02357851
0.02357851
0.02357851
0.02357851
0.02357851
0.02357851
0.02357851
0.02357851
0.02357851
0.02357851
0.02357851
0.02357851
0.02357851
0.02357851
0.02357851
0.02357851
0.02357851
0.02357851
0.02357851
0.02357851
0.02357851
0.02357851
0.02357851
0.02357851
0.02357851
0.02357851
0.02357851
0.02357851
0.02357851
0.02357851
0.02357851
0.02357851
0.02357851
0.02357851
0.02357851
0.02357851
0.02357851
0.02357851
0.02357851
0.02357851
0.02357851
0.02357851
0.02357851
0.02357851
0.02357851
0.02357851
0.02357851
0.02357851
0.02357851
0.02357851
0.02357851
0.02357851
0.02357851
0.02357851
0.02357851
0.02357851
0.02357851
0.02357851
0.02357851
0.02357851
0.02357851
0.02357851
0.02357851
0.02357851
0.02357851
0.02357851
0.02357851
0.02357851
0.02357851
0.02357851
0.02357851
0.02357851
0.02357851
0.02357851
0.02357851
0.02357851
0.02357851
0.02357851
0.02357851
0.02357851
0.02357851
0.02357851
0.02357851
0.02357851
0.02357851
0.02357851
0.02357851
0.02357851
0.02357851
0.02357851
0.02357851
0.02357851
0.02357851
0.02357851
0.02357851
0.02357851
0.02357851
0.02357851
0.02357851
0.02357851
0.02357851
0.02357851
0.02357851
0.02357851
0.02357851
0.02357851
0.02357851
0.02357851
0.02357851
0.02357851
0.02357851
0.02357851
0.02357851
0.02357851
0.02357851
0.02357851
0.02357851
0.02357851
0.02357851
0.02357851
0.02357851
0.02357851
0.02357851
0.02357851
0.02357851
0.02357851
0.02357851
0.02357851
0.02357851
0.02357851
0.02357851
0.02357851
0.02357851
0.02357851
0.02357851
0.02357851
0.02357851
0.02357851
0.02357851
0.02357851
0.02357851
0.02357851
0.02357851
0.02357851
0.02357851
0.02357851
0.02357851
0.02357851
0.02357851
0.02357851
0.02357851
0.02357851
0.02357851
0.02357851
0.02357851
0.02357851
0.02357851
0.02357851
0.02357851
0.02357851
0.02357851
0.02357851
0.02357851
0.02357851
0.02357851
0.02357851
0.02357851
0.02357851
0.02357851
0.02357851
0.02357851
0.02357851
0.02357851
0.02357851
0.02357851
0.02357851
0.02357851
0.02357851
0.02357851
0.02357851
0.02357851
0.02357851
0.02357851
0.02357851
0.02357851
0.02357851
0.02357851
0.02357851
0.02357851
0.02357851
0.02357851
0.02357851
0.02357851
0.02357851
0.02357851
0.02357851
0.02357851
0.02357851
0.02357851
0.02357851
0.02357851
0.02357851
0.02357851
0.02357851
0.02357851
0.02357851
0.02357851
0.02357851
0.02357851
0.02357851
0.02357851
0.02357851
0.02357851
0.02357851
0.02357851
0.02357851
0.02357851
0.02357851
0.02357851
0.02357851
0.02357851
0.02357851
0.02357851
0.02357851
0.02357851
0.02357851
0.02357851
0.02357851
0.02357851
0.02357851
0.02357851
0.02357851
0.02357851
0.02357851
0.02357851
0.02357851
0.02357851
0.02357851
0.02357851
0.02357851
0.02357851
0.02357851
0.02357851
0.02357851
0.02357851
0.02357851
0.02357851
0.02357851
0.02357851
0.02357851
0.02357851
0.02357851
0.02357851
0.02357851
0.02357851
0.02357851
0.02357851
0.02357851
0.02357851
0.02357851
0.02357851
0.02357851
0.02357851
0.02357851
0.02357851
0.02357851
0.02357851
0.02357851
0.02357851
0.02357851
0.02357851
0.02357851
0.02357851
0.02357851
0.02357851
0.02357851
0.02357851
0.02357851
0.02357851
0.02357851
0.02357851
0.02357851
0.02357851
0.02357851
0.02357851
0.02357851
0.02357851
0.02357851
0.02357851
0.02357851
0.02357851
0.02357851
0.02357851
0.02357851
0.02357851
0.02357851
0.02357851
0.02357851
0.02357851
0.02357851
0.02357851
0.02357851
0.02357851
0.02357851
0.02357851
0.02357851
0.02357851
0.02357851
0.02357851
0.02357851
0.02357851
0.02357851
0.02357851
0.02357851
0.02357851
0.02357851
0.02357851
0.02357851
0.02357851
0.02357851
0.02357851
0.02357851
0.02357851
0.02357851
0.02357851
0.02357851
0.02357851
0.02357851
0.02357851
0.02357851
0.02357851
0.02357851
0.02357851
0.02357851
0.02357851
0.02357851
0.02357851
0.02357851


VECTORS d1 FLOAT
0 0.9250772 -0.3797791
-0.009631948 0.9269908 -0.3749603
-0.01925622 0.9287856 -0.3701168
-0.02887164 0.9304618 -0.3652495
-0.03847704 0.9320197 -0.3603593
-0.04807127 0.9334594 -0.3554471
-0.05765319 0.9347814 -0.3505137
-0.06722168 0.9359859 -0.34556
-0.07677562 0.9370731 -0.3405869
-0.08631389 0.9380436 -0.3355953
-0.09583542 0.9388975 -0.330586
-0.1053391 0.9396353 -0.3255599
-0.1148239 0.9402573 -0.3205178
-0.1242888 0.940764 -0.3154607
-0.1337327 0.9411557 -0.3103895
-0.1431545 0.9414328 -0.3053048
-0.1525533 0.9415959 -0.3002077
-0.1619281 0.9416453 -0.295099
-0.1712778 0.9415816 -0.2899794
-0.1806015 0.9414051 -0.28485
-0.1898983 0.9411165 -0.2797114
-0.1991671 0.9407161 -0.2745646
-0.208407 0.9402045 -0.2694103
-0.2176172 0.9395823 -0.2642495
-0.2267966 0.93885 -0.2590829
-0.2359445 0.9380081 -0.2539114
-0.2450598 0.9370572 -0.2487357
-0.2541418 0.9359979 -0.2435568
-0.2631896 0.9348307 -0.2383753
-0.2722023 0.9335563 -0.2331922
-0.2811791 0.9321752 -0.2280081
-0.2901191 0.9306881 -0.222824
-0.2990217 0.9290956 -0.2176405
-0.3078858 0.9273983 -0.2124585
-0.3167109 0.9255969 -0.2072788
-0.3254961 0.9236921 -0.2021021
-0.3342407 0.9216844 -0.1969292
-0.3429439 0.9195745 -0.1917609
-0.351605 0.9173632 -0.1865978
-0.3602232 0.9150511 -0.1814409
-0.3687979 0.9126388 -0.1762907
-0.3773284 0.9101272 -0.1711482
-0.385814 0.9075169 -0.1660139
-0.394254 0.9048086 -0.1608886
-0.4026478 0.902003 -0.155773
-0.4109947 0.8991009 -0.150668
-0.4192942 0.896103 -0.145574
-0.4275455 0.89301 -0.140492
-0.4357481 0.8898226 -0.1354225
-0.4439014 0.8865417 -0.1303663
-0.4520048 0.8831679 -0.125324
-0.4600577 0.879702 -0.1202964
-0.4680597 0.8761448 -0.115284
-0.47601 0.8724971 -0.1102877
-0.4839083 0.8687595 -0.1053079
-0.4917539 0.8649329 -0.1003454
-0.4995464 0.861018 -0.09540088
-0.5072852 0.8570157 -0.09047489
-0.51497 0.8529267 -0.0855681
-0.5226001 0.8487518 -0.08068115
-0.5301752 0.8444918 -0.07581463
-0.5376947 0.8401475 -0.07096919
-0.5451583 0.8357196 -0.06614541
-0.5525655 0.831209 -0.0613439
-0.5599158 0.8266164 -0.05656525
-0.5672089 0.8219427 -0.05181006
-0.5744443 0.8171887 -0.04707891
-0.5816217 0.8123551 -0.04237236
-0.5887407 0.8074428 -0.03769099
-0.5958008 0.8024525 -0.03303536
-0.6028018 0.7973852 -0.02840601
-0.6097432 0.7922415 -0.02380351
-0.6166248 0.7870223 -0.01922839
-0.6234462 0.7817284 -0.01468119
-0.630207 0.7763606 -0.01016243
-0.636907 0.7709198 -0.005672637
-0.6435458 0.7654066 -0.001212324
-0.6501232 0.759822 0.003218
-0.6566387 0.7541668 0.007617833
-0.6630923 0.7484417 0.01198668
-0.6694835 0.7426476 0.01632405
-0.6758121 0.7367852 0.02062947
-0.6820778 0.7308554 0.02490245
-0.6882805 0.7248591 0.02914253
-0.6944198 0.7187969 0.03334924
-0.7004955 0.7126697 0.03752213
-0.7065074 0.7064783 0.04166076
-0.7124553 0.7002236 0.04576466
-0.7183389 0.6939062 0.04983342
-0.724158 0.6875271 0.05386659
-0.7299125 0.681087 0.05786375
-0.7356021 0.6745867 0.06182448
-0.7412267 0.6680271 0.06574838
-0.746786 0.6614088 0.06963503
-0.7522799 0.6547328 0.07348403
-0.7577083 0.6479997 0.077295
-0.7630709 0.6412105 0.08106754
-0.7683676 0.6343658 0.08480127
-0.7735983 0.6274665 0.08849582
-0.7787627 0.6205134 0.09215081
-0.7838608 0.6135072 0.09576589
-0.7888925 0.6064487 0.09934069
-0.7938576 0.5993387 0.1028749
-0.7987559 0.5921781 0.1063681
-0.8035874 0.5849674 0.10982
-0.8083519 0.5777076 0.1132302
-0.8130494 0.5703994 0.1165985
-0.8176796 0.5630436 0.1199244
-0.8222426 0.5556409 0.1232078
-0.8267383 0.5481922 0.1264482
-0.8311664 0.5406981 0.1296454
-0.835527 0.5331594 0.1327991
-0.83982 0.5255769 0.1359089
-0.8440452 0.5179514 0.1389747
-0.8482027 0.5102836 0.141996
-0.8522923 0.5025742 0.1449726
-0.8563139 0.494824 0.1479043
-0.8602675 0.4870338 0.1507908
-0.8641531 0.4792042 0.1536318
-0.8679705 0.4713361 0.156427
-0.8717198 0.4634302 0.1591763
-0.8754008 0.4554872 0.1618793
-0.8790135 0.4475078 0.1645359
-0.8825579 0.4394928 0.1671457
-0.8860339 0.4314429 0.1697086
-0.8894414 0.4233588 0.1722244
-0.8927805 0.4152413 0.1746927
-0.8960511 0.4070911 0.1771134
-0.8992532 0.3989089 0.1794864
-0.9023867 0.3906955 0.1818113
-0.9054516 0.3824514 0.1840879
-0.9084478 0.3741775 0.1863162
-0.9113754 0.3658745 0.1884958
-0.9142343 0.3575431 0.1906267
-0.9170245 0.349184 0.1927086
-0.919746 0.3407978 0.1947413
-0.9223987 0.3323853 0.1967247
-0.9249827 0.3239473 0.1986586
-0.9274978 0.3154843 0.2005428
-0.9299442 0.3069972 0.2023773
-0.9323217 0.2984865 0.2041617
-0.9346304 0.289953 0.2058961
-0.9368703 0.2813974 0.2075802
-0.9390413 0.2728204 0.2092139
-0.9411435 0.2642226 0.210797
-0.9431767 0.2556047 0.2123295
-0.9451411 0.2469675 0.2138113
-0.9470366 0.2383116 0.2152421
-0.9488633 0.2296377 0.2166219
-0.950621 0.2209465 0.2179505
-0.9523098 0.2122386 0.2192279
-0.9539297 0.2035148 0.2204539
-0.9554806 0.1947757 0.2216285
-0.9569627 0.1860219 0.2227516
-0.9583758 0.1772542 0.223823
-0.95972 0.1684732 0.2248427
-0.9609953 0.1596797 0.2258106
-0.9622017 0.1508742 0.2267266
-0.9633391 0.1420574 0.2275907
-0.9644076 0.1332301 0.2284027
-0.9654071 0.1243928 0.2291627
-0.9663377 0.1155462 0.2298705
-0.9671994 0.1066911 0.2305261
-0.9679922 0.09782799 0.2311294
-0.968716 0.08895765 0.2316804
-0.9693709 0.0800807 0.2321791
-0.9699568 0.0711978 0.2326254
-0.9704739 0.06230962 0.2330193
-0.9709219 0.05341683 0.2333607
-0.9713011 0.04452007 0.2336497
-0.9716113 0.03562001 0.2338861
-0.9718526 0.02671732 0.23407
-0.9720249 0.01781265 0.2342014
-0.9721283 0.008906653 0.2342802
-0.9721628 5.967449e-16 0.2343065
-0.9721283 -0.008906653 0.2342802
-0.9720249 -0.01781265 0.2342014
-0.9718526 -0.02671732 0.23407
-0.9716113 -0.03562001 0.2338861
-0.9713011 -0.04452007 0.2336497
-0.9709219 -0.05341683 0.2333607
-0.9704739 -0.06230962 0.2330193
-0.9699568 -0.0711978 0.2326254
-0.9693709 -0.0800807 0.2321791
-0.968716 -0.08895765 0.2316804
-0.9679922 -0.09782799 0.2311294
-0.9671994 -0.1066911 0.2305261
-0.9663377 -0.1155462 0.2298705
-0.9654071 -0.1243928 0.2291627
-0.9644076 -0.1332301 0.2284027
-0.9633391 -0.1420574 0.2275907
-0.9622017 -0.1508742 0.2267266
-0.9609953 -0.1596797 0.2258106
-0.95972 -0.1684732 0.2248427
-0.9583758 -0.1772542 0.223823
-0.9569627 -0.1860219 0.2227516
-0.9554806 -0.1947757 0.2216285
-0.9539297 -0.2035148 0.2204539
-0.9523098 -0.2122386 0.2192279
-0.950621 -0.2209465 0.2179505
-0.9488633 -0.2296377 0.2166219
-0.9470366 -0.2383116 0.2152421
-0.9451411 -0.2469675 0.2138113
-0.9431767 -0.2556047 0.2123295
-0.9411435 -0.2642226 0.210797
-0.9390413 -0.2728204 0.2092139
-0.9368703 -0.2813974 0.2075802
-0.9346304 -0.289953 0.2058961
-0.9323217 -0.2984865 0.2041617
-0.9299442 -0.3069972 0.2023773
-0.9274978 -0.3154843 0.2005428
-0.9249827 -0.3239473 0.1986586
-0.9223987 -0.3323853 0.1967247
-0.919746 -0.3407978 0.1947413