# vtk DataFile Version 2.0
Written badly by Kevin Korner
ASCII
DATASET POLYDATA
POINTS 350 FLOAT
0 0 0
0.00286533 0 0
0.00573052 2.516165e-05 1.280975e-05
0.008595293 7.554448e-05 3.825985e-05
0.01145937 0.0001512039 7.617991e-05
0.01432248 0.000252191 0.0001263987
0.01718434 0.0003785529 0.0001887439
0.02004469 0.0005303326 0.0002630428
0.02290323 0.0007075689 0.0003491214
0.02575971 0.0009102966 0.0004468053
0.02861385 0.001138546 0.0005559193
0.03146538 0.001392345 0.0006762877
0.03431403 0.001671716 0.000807734
0.03715952 0.001976677 0.0009500812
0.0400016 0.002307243 0.001103152
0.04283999 0.002663426 0.001266768
0.04567444 0.003045232 0.001440752
0.04850467 0.003452665 0.001624924
0.05133042 0.003885725 0.001819105
0.05415143 0.004344407 0.002023116
0.05696744 0.004828703 0.002236778
0.05977819 0.005338602 0.002459911
0.06258343 0.005874088 0.002692334
0.06538289 0.006435143 0.002933867
0.06817632 0.007021744 0.003184331
0.07096348 0.007633864 0.003443544
0.0737441 0.008271476 0.003711327
0.07651794 0.008934544 0.0039875
0.07928475 0.009623034 0.004271881
0.08204427 0.01033691 0.004564291
0.08479628 0.01107611 0.00486455
0.08754052 0.01184061 0.005172477
0.09027674 0.01263036 0.005487894
0.09300472 0.01344529 0.005810621
0.0957242 0.01428535 0.006140478
0.09843496 0.01515049 0.006477287
0.1011368 0.01604063 0.006820869
0.1038294 0.01695572 0.007171045
0.1065125 0.01789569 0.007527639
0.109186 0.01886046 0.007890472
0.1118497 0.01984996 0.008259367
0.1145032 0.02086412 0.008634149
0.1171464 0.02190284 0.00901464
0.119779 0.02296606 0.009400666
0.1224008 0.02405367 0.009792051
0.1250117 0.0251656 0.01018862
0.1276113 0.02630175 0.0105902
0.1301995 0.02746203 0.01099662
0.132776 0.02864634 0.01140771
0.1353407 0.02985458 0.01182329
0.1378933 0.03108664 0.01224319
0.1404336 0.03234243 0.01266725
0.1429615 0.03362184 0.01309529
0.1454766 0.03492475 0.01352715
0.1479789 0.03625106 0.01396265
0.1504681 0.03760064 0.01440163
0.152944 0.03897339 0.01484392
0.1554064 0.04036918 0.01528936
0.1578551 0.0417879 0.01573779
0.16029 0.04322941 0.01618903
0.1627108 0.04469359 0.01664293
0.1651173 0.04618032 0.01709933
0.1675094 0.04768946 0.01755806
0.1698869 0.04922088 0.01801897
0.1722496 0.05077444 0.01848189
0.1745973 0.05235002 0.01894667
0.1769298 0.05394746 0.01941315
0.179247 0.05556664 0.01988117
0.1815486 0.0572074 0.02035059
0.1838346 0.05886961 0.02082124
0.1861047 0.06055312 0.02129298
0.1883588 0.06225777 0.02176565
0.1905967 0.06398342 0.0222391
0.1928182 0.06572992 0.02271319
0.1950232 0.06749711 0.02318776
0.1972114 0.06928484 0.02366267
0.1993829 0.07109295 0.02413778
0.2015373 0.07292128 0.02461293
0.2036746 0.07476968 0.02508799
0.2057945 0.07663797 0.02556281
0.207897 0.078526 0.02603725
0.2099818 0.08043361 0.02651117
0.2120489 0.08236062 0.02698444
0.214098 0.08430687 0.02745692
0.2161291 0.08627218 0.02792846
0.218142 0.08825639 0.02839895
0.2201365 0.09025933 0.02886823
0.2221125 0.09228082 0.02933619
0.2240699 0.09432068 0.02980268
0.2260086 0.09637874 0.03026759
0.2279283 0.09845483 0.03073077
0.2298291 0.1005488 0.03119212
0.2317106 0.1026603 0.03165149
0.2335729 0.1047894 0.03210877
0.2354158 0.1069358 0.03256383
0.2372391 0.1090993 0.03301655
0.2390427 0.1112797 0.03346681
0.2408266 0.1134768 0.0339145
0.2425906 0.1156905 0.03435948
0.2443345 0.1179206 0.03480166
0.2460583 0.1201669 0.03524091
0.2477619 0.1224291 0.03567712
0.249445 0.1247072 0.03611018
0.2511078 0.1270008 0.03653998
0.2527499 0.1293099 0.03696641
0.2543713 0.1316341 0.03738936
0.2559719 0.1339734 0.03780872
0.2575516 0.1363275 0.0382244
0.2591103 0.1386963 0.03863628
0.2606479 0.1410794 0.03904426
0.2621643 0.1434768 0.03944825
0.2636594 0.1458882 0.03984815
0.2651331 0.1483135 0.04024385
0.2665853 0.1507523 0.04063526
0.2680159 0.1532046 0.04102229
0.2694248 0.1556701 0.04140485
0.2708119 0.1581486 0.04178283
0.2721772 0.16064 0.04215616
0.2735206 0.1631439 0.04252473
0.2748419 0.1656602 0.04288847
0.2761411 0.1681888 0.04324729
0.2774181 0.1707293 0.04360111
0.2786728 0.1732815 0.04394983
0.2799052 0.1758454 0.04429339
0.2811152 0.1784206 0.04463169
0.2823026 0.1810069 0.04496467
0.2834675 0.1836042 0.04529224
0.2846098 0.1862122 0.04561433
0.2857293 0.1888307 0.04593086
0.286826 0.1914595 0.04624176
0.2878999 0.1940984 0.04654696
0.2889508 0.1967472 0.0468464
0.2899788 0.1994056 0.04714
0.2909837 0.2020735 0.04742769
0.2919655 0.2047506 0.04770942
0.2929242 0.2074367 0.04798511
0.2938596 0.2101316 0.04825471
0.2947717 0.212835 0.04851816
0.2956605 0.2155469 0.04877539
0.2965259 0.2182668 0.04902635
0.2973679 0.2209947 0.04927099
0.2981863 0.2237303 0.04950924
0.2989812 0.2264734 0.04974106
0.2997526 0.2292237 0.0499664
0.3005003 0.2319811 0.0501852
0.3012243 0.2347453 0.05039742
0.3019246 0.2375161 0.05060301
0.3026011 0.2402933 0.05080192
0.3032538 0.2430767 0.05099412
0.3038827 0.245866 0.05117956
0.3044876 0.2486611 0.05135819
0.3050687 0.2514616 0.05152999
0.3056258 0.2542674 0.05169491
0.3061589 0.2570782 0.05185291
0.306668 0.2598939 0.05200397
0.3071531 0.2627142 0.05214805
0.3076141 0.2655389 0.05228512
0.308051 0.2683678 0.05241514
0.3084637 0.2712005 0.0525381
0.3088523 0.274037 0.05265396
0.3092167 0.276877 0.0527627
0.3095569 0.2797203 0.0528643
0.3098729 0.2825665 0.05295873
0.3101647 0.2854156 0.05304598
0.3104322 0.2882673 0.05312602
0.3106755 0.2911214 0.05319884
0.3108944 0.2939776 0.05326443
0.3110891 0.2968357 0.05332276
0.3112594 0.2996955 0.05337382
0.3114055 0.3025568 0.05341762
0.3115272 0.3054193 0.05345412
0.3116246 0.3082828 0.05348334
0.3116976 0.3111471 0.05350526
0.3117463 0.314012 0.05351987
0.3117706 0.3168772 0.05352718
0.3117706 0.3197426 0.05352718
0.3117463 0.3226078 0.05351987
0.3116976 0.3254726 0.05350526
0.3116246 0.328337 0.05348334
0.3115272 0.3312005 0.05345412
0.3114055 0.334063 0.05341762
0.3112594 0.3369243 0.05337382
0.3110891 0.3397841 0.05332276
0.3108944 0.3426422 0.05326443
0.3106755 0.3454984 0.05319884
0.3104322 0.3483524 0.05312602
0.3101647 0.3512041 0.05304598
0.3098729 0.3540532 0.05295873
0.3095569 0.3568995 0.0528643
0.3092167 0.3597428 0.0527627
0.3088523 0.3625827 0.05265396
0.3084637 0.3654192 0.0525381
0.308051 0.368252 0.05241514
0.3076141 0.3710809 0.05228512
0.3071531 0.3739055 0.05214805
0.306668 0.3767258 0.05200397
0.3061589 0.3795415 0.05185291
0.3056258 0.3823524 0.05169491
0.3050687 0.3851582 0.05152999
0.3044876 0.3879587 0.05135819
0.3038827 0.3907537 0.05117956
0.3032538 0.3935431 0.05099412
0.3026011 0.3963264 0.05080192
0.3019246 0.3991036 0.05060301
0.3012243 0.4018745 0.05039742
0.3005003 0.4046387 0.0501852
0.2997526 0.4073961 0.0499664
0.2989812 0.4101464 0.04974106
0.2981863 0.4128895 0.04950924
0.2973679 0.4156251 0.04927099
0.2965259 0.418353 0.04902635
0.2956605 0.4210729 0.04877539
0.2947717 0.4237847 0.04851816
0.2938596 0.4264882 0.04825471
0.2929242 0.4291831 0.04798511
0.2919655 0.4318692 0.04770942
0.2909837 0.4345463 0.04742769
0.2899788 0.4372141 0.04714
0.2889508 0.4398726 0.0468464
0.2878999 0.4425213 0.04654696
0.286826 0.4451602 0.04624176
0.2857293 0.447789 0.04593086
0.2846098 0.4504075 0.04561433
0.2834675 0.4530155 0.04529224
0.2823026 0.4556128 0.04496467
0.2811152 0.4581992 0.04463169
0.2799052 0.4607744 0.04429339
0.2786728 0.4633382 0.04394983
0.2774181 0.4658905 0.04360111
0.2761411 0.468431 0.04324729
0.2748419 0.4709595 0.04288847
0.2735206 0.4734759 0.04252473
0.2721772 0.4759798 0.04215616
0.2708119 0.4784711 0.04178283
0.2694248 0.4809497 0.04140485
0.2680159 0.4834152 0.04102229
0.2665853 0.4858674 0.04063526
0.2651331 0.4883063 0.04024385
0.2636594 0.4907316 0.03984815
0.2621643 0.493143 0.03944825
0.2606479 0.4955404 0.03904426
0.2591103 0.4979235 0.03863628
0.2575516 0.5002923 0.0382244
0.2559719 0.5026464 0.03780872
0.2543713 0.5049856 0.03738936
0.2527499 0.5073099 0.03696641
0.2511078 0.509619 0.03653998
0.249445 0.5119126 0.03611018
0.2477619 0.5141906 0.03567712
0.2460583 0.5164529 0.03524091
0.2443345 0.5186991 0.03480166
0.2425906 0.5209292 0.03435948
0.2408266 0.5231429 0.0339145
0.2390427 0.5253401 0.03346681
0.2372391 0.5275205 0.03301655
0.2354158 0.529684 0.03256383
0.2335729 0.5318304 0.03210877
0.2317106 0.5339594 0.03165149
0.2298291 0.536071 0.03119212
0.2279283 0.5381649 0.03073077
0.2260086 0.540241 0.03026759
0.2240699 0.5422991 0.02980268
0.2221125 0.544339 0.02933619
0.2201365 0.5463604 0.02886823
0.218142 0.5483634 0.02839895
0.2161291 0.5503476 0.02792846
0.214098 0.5523129 0.02745692
0.2120489 0.5542592 0.02698444
0.2099818 0.5561862 0.02651117
0.207897 0.5580938 0.02603725
0.2057945 0.5599818 0.02556281
0.2036746 0.5618501 0.02508799
0.2015373 0.5636985 0.02461293
0.1993829 0.5655268 0.02413778
0.1972114 0.5673349 0.02366267
0.1950232 0.5691227 0.02318776
0.1928182 0.5708899 0.02271319
0.1905967 0.5726364 0.0222391
0.1883588 0.574362 0.02176565
0.1861047 0.5760667 0.02129298
0.1838346 0.5777502 0.02082124
0.1815486 0.5794124 0.02035059
0.179247 0.5810531 0.01988117
0.1769298 0.5826723 0.01941315
0.1745973 0.5842698 0.01894667
0.1722496 0.5858453 0.01848189
0.1698869 0.5873989 0.01801897
0.1675094 0.5889303 0.01755806
0.1651173 0.5904395 0.01709933
0.1627108 0.5919262 0.01664293
0.16029 0.5933904 0.01618903
0.1578551 0.5948319 0.01573779
0.1554064 0.5962506 0.01528936
0.152944 0.5976464 0.01484392
0.1504681 0.5990191 0.01440163
0.1479789 0.6003687 0.01396265
0.1454766 0.601695 0.01352715
0.1429615 0.6029979 0.01309529
0.1404336 0.6042773 0.01266725
0.1378933 0.6055331 0.01224319
0.1353407 0.6067652 0.01182329
0.132776 0.6079734 0.01140771
0.1301995 0.6091577 0.01099662
0.1276113 0.610318 0.0105902
0.1250117 0.6114542 0.01018862
0.1224008 0.6125661 0.009792051
0.119779 0.6136537 0.009400666
0.1171464 0.6147169 0.00901464
0.1145032 0.6157557 0.008634149
0.1118497 0.6167698 0.008259367
0.109186 0.6177593 0.007890472
0.1065125 0.6187241 0.007527639
0.1038294 0.619664 0.007171045
0.1011368 0.6205791 0.006820869
0.09843496 0.6214693 0.006477287
0.0957242 0.6223344 0.006140478
0.09300472 0.6231745 0.005810621
0.09027674 0.6239894 0.005487894
0.08754052 0.6247792 0.005172477
0.08479628 0.6255437 0.00486455
0.08204427 0.6262829 0.004564291
0.07928475 0.6269967 0.004271881
0.07651794 0.6276852 0.0039875
0.0737441 0.6283483 0.003711327
0.07096348 0.6289859 0.003443544
0.06817632 0.629598 0.003184331
0.06538289 0.6301846 0.002933867
0.06258343 0.6307457 0.002692334
0.05977819 0.6312812 0.002459911
0.05696744 0.6317911 0.002236778
0.05415143 0.6322754 0.002023116
0.05133042 0.632734 0.001819105
0.04850467 0.6331671 0.001624924
0.04567444 0.6335745 0.001440752
0.04283999 0.6339563 0.001266768
0.0400016 0.6343125 0.001103152
0.03715952 0.6346431 0.0009500812
0.03431403 0.6349481 0.000807734
0.03146538 0.6352274 0.0006762877
0.02861385 0.6354812 0.0005559193
0.02575971 0.6357095 0.0004468053
0.02290323 0.6359122 0.0003491214
0.02004469 0.6360894 0.0002630428
0.01718434 0.6362412 0.0001887439
0.01432248 0.6363676 0.0001263987
0.01145937 0.6364686 7.617991e-05
0.008595293 0.6365442 3.825985e-05
0.00573052 0.6365946 1.280975e-05
0.00286533 0.6366198 0
0 0.6366198 0

LINES 349 1047
2 0 1
2 1 2
2 2 3
2 3 4
2 4 5
2 5 6
2 6 7
2 7 8
2 8 9
2 9 10
2 10 11
2 11 12
2 12 13
2 13 14
2 14 15
2 15 16
2 16 17
2 17 18
2 18 19
2 19 20
2 20 21
2 21 22
2 22 23
2 23 24
2 24 25
2 25 26
2 26 27
2 27 28
2 28 29
2 29 30
2 30 31
2 31 32
2 32 33
2 33 34
2 34 35
2 35 36
2 36 37
2 37 38
2 38 39
2 39 40
2 40 41
2 41 42
2 42 43
2 43 44
2 44 45
2 45 46
2 46 47
2 47 48
2 48 49
2 49 50
2 50 51
2 51 52
2 52 53
2 53 54
2 54 55
2 55 56
2 56 57
2 57 58
2 58 59
2 59 60
2 60 61
2 61 62
2 62 63
2 63 64
2 64 65
2 65 66
2 66 67
2 67 68
2 68 69
2 69 70
2 70 71
2 71 72
2 72 73
2 73 74
2 74 75
2 75 76
2 76 77
2 77 78
2 78 79
2 79 80
2 80 81
2 81 82
2 82 83
2 83 84
2 84 85
2 85 86
2 86 87
2 87 88
2 88 89
2 89 90
2 90 91
2 91 92
2 92 93
2 93 94
2 94 95
2 95 96
2 96 97
2 97 98
2 98 99
2 99 100
2 100 101
2 101 102
2 102 103
2 103 104
2 104 105
2 105 106
2 106 107
2 107 108
2 108 109
2 109 110
2 110 111
2 111 112
2 112 113
2 113 114
2 114 115
2 115 116
2 116 117
2 117 118
2 118 119
2 119 120
2 120 121
2 121 122
2 122 123
2 123 124
2 124 125
2 125 126
2 126 127
2 127 128
2 128 129
2 129 130
2 130 131
2 131 132
2 132 133
2 133 134
2 134 135
2 135 136
2 136 137
2 137 138
2 138 139
2 139 140
2 140 141
2 141 142
2 142 143
2 143 144
2 144 145
2 145 146
2 146 147
2 147 148
2 148 149
2 149 150
2 150 151
2 151 152
2 152 153
2 153 154
2 154 155
2 155 156
2 156 157
2 157 158
2 158 159
2 159 160
2 160 161
2 161 162
2 162 163
2 163 164
2 164 165
2 165 166
2 166 167
2 167 168
2 168 169
2 169 170
2 170 171
2 171 172
2 172 173
2 173 174
2 174 175
2 175 176
2 176 177
2 177 178
2 178 179
2 179 180
2 180 181
2 181 182
2 182 183
2 183 184
2 184 185
2 185 186
2 186 187
2 187 188
2 188 189
2 189 190
2 190 191
2 191 192
2 192 193
2 193 194
2 194 195
2 195 196
2 196 197
2 197 198
2 198 199
2 199 200
2 200 201
2 201 202
2 202 203
2 203 204
2 204 205
2 205 206
2 206 207
2 207 208
2 208 209
2 209 210
2 210 211
2 211 212
2 212 213
2 213 214
2 214 215
2 215 216
2 216 217
2 217 218
2 218 219
2 219 220
2 220 221
2 221 222
2 222 223
2 223 224
2 224 225
2 225 226
2 226 227
2 227 228
2 228 229
2 229 230
2 230 231
2 231 232
2 232 233
2 233 234
2 234 235
2 235 236
2 236 237
2 237 238
2 238 239
2 239 240
2 240 241
2 241 242
2 242 243
2 243 244
2 244 245
2 245 246
2 246 247
2 247 248
2 248 249
2 249 250
2 250 251
2 251 252
2 252 253
2 253 254
2 254 255
2 255 256
2 256 257
2 257 258
2 258 259
2 259 260
2 260 261
2 261 262
2 262 263
2 263 264
2 264 265
2 265 266
2 266 267
2 267 268
2 268 269
2 269 270
2 270 271
2 271 272
2 272 273
2 273 274
2 274 275
2 275 276
2 276 277
2 277 278
2 278 279
2 279 280
2 280 281
2 281 282
2 282 283
2 283 284
2 284 285
2 285 286
2 286 287
2 287 288
2 288 289
2 289 290
2 290 291
2 291 292
2 292 293
2 293 294
2 294 295
2 295 296
2 296 297
2 297 298
2 298 299
2 299 300
2 300 301
2 301 302
2 302 303
2 303 304
2 304 305
2 305 306
2 306 307
2 307 308
2 308 309
2 309 310
2 310 311
2 311 312
2 312 313
2 313 314
2 314 315
2 315 316
2 316 317
2 317 318
2 318 319
2 319 320
2 320 321
2 321 322
2 322 323
2 323 324
2 324 325
2 325 326
2 326 327
2 327 328
2 328 329
2 329 330
2 330 331
2 331 332
2 332 333
2 333 334
2 334 335
2 335 336
2 336 337
2 337 338
2 338 339
2 339 340
2 340 341
2 341 342
2 342 343
2 343 344
2 344 345
2 345 346
2 346 347
2 347 348
2 348 349


POINT_DATA 350
SCALARS a FLOAT 1
LOOKUP_TABLE default
0.0005894628
0.0005894628
0.0005894628
0.0005894628
0.0005894628
0.0005894628
0.0005894628
0.0005894628
0.0005894628
0.0005894628
0.0005894628
0.0005894628
0.0005894628
0.0005894628
0.0005894628
0.0005894628
0.0005894628
0.0005894628
0.0005894628
0.0005894628
0.0005894628
0.0005894628
0.0005894628
0.0005894628
0.0005894628
0.0005894628
0.0005894628
0.0005894628
0.0005894628
0.0005894628
0.0005894628
0.0005894628
0.0005894628
0.0005894628
0.0005894628
0.0005894628
0.0005894628
0.0005894628
0.0005894628
0.0005894628
0.0005894628
0.0005894628
0.0005894628
0.0005894628
0.0005894628
0.0005894628
0.0005894628
0.0005894628
0.0005894628
0.0005894628
0.0005894628
0.0005894628
0.0005894628
0.0005894628
0.0005894628
0.0005894628
0.0005894628
0.0005894628
0.0005894628
0.0005894628
0.0005894628
0.0005894628
0.0005894628
0.0005894628
0.0005894628
0.0005894628
0.0005894628
0.0005894628
0.0005894628
0.0005894628
0.0005894628
0.0005894628
0.0005894628
0.0005894628
0.0005894628
0.0005894628
0.0005894628
0.0005894628
0.0005894628
0.0005894628
0.0005894628
0.0005894628
0.0005894628
0.0005894628
0.0005894628
0.0005894628
0.0005894628
0.0005894628
0.0005894628
0.0005894628
0.0005894628
0.0005894628
0.0005894628
0.0005894628
0.0005894628
0.0005894628
0.0005894628
0.0005894628
0.0005894628
0.0005894628
0.0005894628
0.0005894628
0.0005894628
0.0005894628
0.0005894628
0.0005894628
0.0005894628
0.0005894628
0.0005894628
0.0005894628
0.0005894628
0.0005894628
0.0005894628
0.0005894628
0.0005894628
0.0005894628
0.0005894628
0.0005894628
0.0005894628
0.0005894628
0.0005894628
0.0005894628
0.0005894628
0.0005894628
0.0005894628
0.0005894628
0.0005894628
0.0005894628
0.0005894628
0.0005894628
0.0005894628
0.0005894628
0.0005894628
0.0005894628
0.0005894628
0.0005894628
0.0005894628
0.0005894628
0.0005894628
0.0005894628
0.0005894628
0.0005894628
0.0005894628
0.0005894628
0.0005894628
0.0005894628
0.0005894628
0.0005894628
0.0005894628
0.0005894628
0.0005894628
0.0005894628
0.0005894628
0.0005894628
0.0005894628
0.0005894628
0.0005894628
0.0005894628
0.0005894628
0.0005894628
0.0005894628
0.0005894628
0.0005894628
0.0005894628
0.0005894628
0.0005894628
0.0005894628
0.0005894628
0.0005894628
0.0005894628
0.0005894628
0.0005894628
0.0005894628
0.0005894628
0.0005894628
0.0005894628
0.0005894628
0.0005894628
0.0005894628
0.0005894628
0.0005894628
0.0005894628
0.0005894628
0.0005894628
0.0005894628
0.0005894628
0.0005894628
0.0005894628
0.0005894628
0.0005894628
0.0005894628
0.0005894628
0.0005894628
0.0005894628
0.0005894628
0.0005894628
0.0005894628
0.0005894628
0.0005894628
0.0005894628
0.0005894628
0.0005894628
0.0005894628
0.0005894628
0.0005894628
0.0005894628
0.0005894628
0.0005894628
0.0005894628
0.0005894628
0.0005894628
0.0005894628
0.0005894628
0.0005894628
0.0005894628
0.0005894628
0.0005894628
0.0005894628
0.0005894628
0.0005894628
0.0005894628
0.0005894628
0.0005894628
0.0005894628
0.0005894628
0.0005894628
0.0005894628
0.0005894628
0.0005894628
0.0005894628
0.0005894628
0.0005894628
0.0005894628
0.0005894628
0.0005894628
0.0005894628
0.0005894628
0.0005894628
0.0005894628
0.0005894628
0.0005894628
0.0005894628
0.0005894628
0.0005894628
0.0005894628
0.0005894628
0.0005894628
0.0005894628
0.0005894628
0.0005894628
0.0005894628
0.0005894628
0.0005894628
0.0005894628
0.0005894628
0.0005894628
0.0005894628
0.0005894628
0.0005894628
0.0005894628
0.0005894628
0.0005894628
0.0005894628
0.0005894628
0.0005894628
0.0005894628
0.0005894628
0.0005894628
0.0005894628
0.0005894628
0.0005894628
0.0005894628
0.0005894628
0.0005894628
0.0005894628
0.0005894628
0.0005894628
0.0005894628
0.0005894628
0.0005894628
0.0005894628
0.0005894628
0.0005894628
0.0005894628
0.0005894628
0.0005894628
0.0005894628
0.0005894628
0.0005894628
0.0005894628
0.0005894628
0.0005894628
0.0005894628
0.0005894628
0.0005894628
0.0005894628
0.0005894628
0.0005894628
0.0005894628
0.0005894628
0.0005894628
0.0005894628
0.0005894628
0.0005894628
0.0005894628
0.0005894628
0.0005894628
0.0005894628
0.0005894628
0.0005894628
0.0005894628
0.0005894628
0.0005894628
0.0005894628
0.0005894628
0.0005894628
0.0005894628
0.0005894628
0.0005894628
0.0005894628
0.0005894628
0.0005894628
0.0005894628
0.0005894628
0.0005894628
0.0005894628
0.0005894628
0.0005894628
0.0005894628
0.0005894628
0.0005894628
0.0005894628
0.0005894628
0.0005894628
0.0005894628
0.0005894628
0.0005894628
0.0005894628
0.0005894628
0.0005894628
0.0005894628
0.0005894628
0.0005894628
0.0005894628
0.0005894628
0.0005894628
0.0005894628
0.0005894628
0.0005894628
0.0005894628


SCALARS b FLOAT 1
LOOKUP_TABLE default
0.02357851
0.02357851
0.02357851
0.02357851
0.02357851
0.02357851
0.02357851
0.02357851
0.02357851
0.02357851
0.02357851
0.02357851
0.02357851
0.02357851
0.02357851
0.02357851
0.02357851
0.02357851
0.02357851
0.02357851
0.02357851
0.02357851
0.02357851
0.02357851
0.02357851
0.02357851
0.02357851
0.02357851
0.02357851
0.02357851
0.02357851
0.02357851
0.02357851
0.02357851
0.02357851
0.02357851
0.02357851
0.02357851
0.02357851
0.02357851
0.02357851
0.02357851
0.02357851
0.02357851
0.02357851
0.02357851
0.02357851
0.02357851
0.02357851
0.02357851
0.02357851
0.02357851
0.02357851
0.02357851
0.02357851
0.02357851
0.02357851
0.02357851
0.02357851
0.02357851
0.02357851
0.02357851
0.02357851
0.02357851
0.02357851
0.02357851
0.02357851
0.02357851
0.02357851
0.02357851
0.02357851
0.02357851
0.02357851
0.02357851
0.02357851
0.02357851
0.02357851
0.02357851
0.02357851
0.02357851
0.02357851
0.02357851
0.02357851
0.02357851
0.02357851
0.02357851
0.02357851
0.02357851
0.02357851
0.02357851
0.02357851
0.02357851
0.02357851
0.02357851
0.02357851
0.02357851
0.02357851
0.02357851
0.02357851
0.02357851
0.02357851
0.02357851
0.02357851
0.02357851
0.02357851
0.02357851
0.02357851
0.02357851
0.02357851
0.02357851
0.02357851
0.02357851
0.02357851
0.02357851
0.02357851
0.02357851
0.02357851
0.02357851
0.02357851
0.02357851
0.02357851
0.02357851
0.02357851
0.02357851
0.02357851
0.02357851
0.02357851
0.02357851
0.02357851
0.02357851
0.02357851
0.02357851
0.02357851
0.02357851
0.02357851
0.02357851
0.02357851
0.02357851
0.02357851
0.02357851
0.02357851
0.02357851
0.02357851
0.02357851
0.02357851
0.02357851
0.02357851
0.02357851
0.02357851
0.02357851
0.02357851
0.02357851
0.02357851
0.02357851
0.02357851
0.02357851
0.02357851
0.02357851
0.02357851
0.02357851
0.02357851
0.02357851
0.02357851
0.02357851
0.02357851
0.02357851
0.02357851
0.02357851
0.02357851
0.02357851
0.02357851
0.02357851
0.02357851
0.02357851
0.02357851
0.02357851
0.02357851
0.02357851
0.02357851
0.02357851
0.02357851
0.02357851
0.02357851
0.02357851
0.02357851
0.02357851
0.02357851
0.02357851
0.02357851
0.02357851
0.02357851
0.02357851
0.02357851
0.02357851
0.02357851
0.02357851
0.02357851
0.02357851
0.02357851
0.02357851
0.02357851
0.02357851
0.02357851
0.02357851
0.02357851
0.02357851
0.02357851
0.02357851
0.02357851
0.02357851
0.02357851
0.02357851
0.02357851
0.02357851
0.02357851
0.02357851
0.02357851
0.02357851
0.02357851
0.02357851
0.02357851
0.02357851
0.02357851
0.02357851
0.02357851
0.02357851
0.02357851
0.02357851
0.02357851
0.02357851
0.02357851
0.02357851
0.02357851
0.02357851
0.02357851
0.02357851
0.02357851
0.02357851
0.02357851
0.02357851
0.02357851
0.02357851
0.02357851
0.02357851
0.02357851
0.02357851
0.02357851
0.02357851
0.02357851
0.02357851
0.02357851
0.02357851
0.02357851
0.02357851
0.02357851
0.02357851
0.02357851
0.02357851
0.02357851
0.02357851
0.02357851
0.02357851
0.02357851
0.02357851
0.02357851
0.02357851
0.02357851
0.02357851
0.02357851
0.02357851
0.02357851
0.02357851
0.02357851
0.02357851
0.02357851
0.02357851
0.02357851
0.02357851
0.02357851
0.02357851
0.02357851
0.02357851
0.02357851
0.02357851
0.02357851
0.02357851
0.02357851
0.02357851
0.02357851
0.02357851
0.02357851
0.02357851
0.02357851
0.02357851
0.02357851
0.02357851
0.02357851
0.02357851
0.02357851
0.02357851
0.02357851
0.02357851
0.02357851
0.02357851
0.02357851
0.02357851
0.02357851
0.02357851
0.02357851
0.02357851
0.02357851
0.02357851
0.02357851
0.02357851
0.02357851
0.02357851
0.02357851
0.02357851
0.02357851
0.02357851
0.02357851
0.02357851
0.02357851
0.02357851
0.02357851
0.02357851
0.02357851
0.02357851
0.02357851
0.02357851
0.02357851
0.02357851
0.02357851
0.02357851
0.02357851
0.02357851
0.02357851
0.02357851
0.02357851
0.02357851
0.02357851
0.02357851
0.02357851
0.02357851
0.02357851
0.02357851
0.02357851
0.02357851
0.02357851
0.02357851


VECTORS d1 FLOAT
0 0.8895759 0.4567874
-0.00985387 0.8924018 0.4511341
-0.01969926 0.8950936 0.4454429
-0.02953472 0.8976516 0.439715
-0.03935883 0.900076 0.4339517
-0.04917015 0.9023671 0.4281541
-0.05896731 0.9045251 0.4223236
-0.06874892 0.9065504 0.4164613
-0.07851363 0.9084433 0.4105684
-0.08826008 0.9102042 0.4046461
-0.09798696 0.9118335 0.3986957
-0.107693 0.9133315 0.3927184
-0.1173768 0.9146988 0.3867153
-0.1270372 0.9159358 0.3806877
-0.1366729 0.917043 0.3746368
-0.1462828 0.9180208 0.3685637
-0.1558655 0.9188698 0.3624698
-0.1654199 0.9195905 0.356356
-0.1749448 0.9201835 0.3502237
-0.1844391 0.9206494 0.344074
-0.1939016 0.9209887 0.3379081
-0.2033313 0.9212022 0.3317272
-0.212727 0.9212903 0.3255324
-0.2220877 0.9212539 0.3193249
-0.2314123 0.9210935 0.3131057
-0.2406997 0.9208098 0.3068762
-0.2499491 0.9204035 0.3006374
-0.2591593 0.9198754 0.2943904
-0.2683295 0.9192261 0.2881364
-0.2774586 0.9184565 0.2818765
-0.2865457 0.9175673 0.2756118
-0.2955899 0.9165592 0.2693434
-0.3045904 0.915433 0.2630723
-0.3135461 0.9141896 0.2567998
-0.3224564 0.9128298 0.2505268
-0.3313203 0.9113543 0.2442544
-0.3401371 0.909764 0.2379837
-0.3489059 0.9080597 0.2317158
-0.357626 0.9062424 0.2254516
-0.3662965 0.9043128 0.2191923
-0.3749169 0.9022718 0.2129387
-0.3834862 0.9001204 0.2066921
-0.392004 0.8978593 0.2004533
-0.4004693 0.8954896 0.1942234
-0.4088817 0.8930121 0.1880033
-0.4172404 0.8904277 0.181794
-0.4255448 0.8877373 0.1755965
-0.4337943 0.8849419 0.1694118
-0.4419883 0.8820424 0.1632408
-0.4501262 0.8790397 0.1570844
-0.4582075 0.8759349 0.1509436
-0.4662317 0.8727287 0.1448193
-0.4741981 0.8694222 0.1387124
-0.4821063 0.8660164 0.1326238
-0.4899558 0.8625122 0.1265543
-0.4977462 0.8589105 0.120505
-0.5054768 0.8552124 0.1144765
-0.5131474 0.8514188 0.1084698
-0.5207575 0.8475307 0.1024858
-0.5283067 0.843549 0.09652521
-0.5357945 0.8394748 0.09058893
-0.5432206 0.8353089 0.08467776
-0.5505846 0.8310525 0.0787925
-0.5578862 0.8267065 0.07293395
-0.5651251 0.8222718 0.0671029
-0.5723008 0.8177494 0.06130011
-0.579413 0.8131404 0.05552636
-0.5864616 0.8084457 0.04978239
-0.5934462 0.8036663 0.04406895
-0.6003665 0.7988032 0.03838677
-0.6072222 0.7938573 0.03273658
-0.6140132 0.7888297 0.02711908
-0.6207392 0.7837213 0.02153497
-0.6273999 0.7785332 0.01598496
-0.6339951 0.7732662 0.01046972
-0.6405247 0.7679213 0.004989926
-0.6469885 0.7624996 -0.0004537653
-0.6533862 0.757002 -0.005860699
-0.6597178 0.7514295 -0.01123023
-0.665983 0.7457831 -0.01656174
-0.6721817 0.7400636 -0.02185459
-0.6783138 0.7342721 -0.02710817
-0.6843791 0.7284096 -0.03232189
-0.6903776 0.7224769 -0.03749514
-0.6963091 0.7164751 -0.04262735
-0.7021735 0.710405 -0.04771795
-0.7079708 0.7042677 -0.05276636
-0.7137008 0.6980641 -0.05777203
-0.7193635 0.6917951 -0.06273441
-0.7249589 0.6854617 -0.06765298
-0.7304868 0.6790647 -0.07252719
-0.7359472 0.6726052 -0.07735654
-0.7413401 0.666084 -0.08214052
-0.7466654 0.659502 -0.08687861
-0.7519232 0.6528602 -0.09157034
-0.7571133 0.6461595 -0.09621522
-0.7622359 0.6394007 -0.1008128
-0.7672908 0.6325848 -0.1053625
-0.7722781 0.6257128 -0.1098641
-0.7771978 0.6187853 -0.1143169
-0.7820498 0.6118035 -0.1187206
-0.7868343 0.604768 -0.1230747
-0.7915512 0.5976799 -0.1273788
-0.7962006 0.59054 -0.1316325
-0.8007825 0.5833491 -0.1358354
-0.8052968 0.5761082 -0.1399871
-0.8097438 0.568818 -0.1440872
-0.8141233 0.5614794 -0.1481353
-0.8184356 0.5540933 -0.152131
-0.8226805 0.5466606 -0.156074
-0.8268582 0.5391819 -0.1599639
-0.8309687 0.5316583 -0.1638003
-0.8350121 0.5240905 -0.167583
-0.8389884 0.5164793 -0.1713115
-0.8428978 0.5088256 -0.1749855
-0.8467402 0.5011301 -0.1786048
-0.8505158 0.4933937 -0.1821689
-0.8542247 0.4856172 -0.1856777
-0.8578668 0.4778013 -0.1891307
-0.8614424 0.4699469 -0.1925277
-0.8649514 0.4620548 -0.1958684
-0.868394 0.4541257 -0.1991525
-0.8717702 0.4461605 -0.2023797
-0.8750802 0.4381598 -0.2055498
-0.8783239 0.4301244 -0.2086625
-0.8815016 0.4220552 -0.2117176
-0.8846132 0.4139529 -0.2147147
-0.887659 0.4058182 -0.2176537
-0.8906389 0.3976519 -0.2205343
-0.893553 0.3894548 -0.2233562
-0.8964015 0.3812275 -0.2261194
-0.8991844 0.3729708 -0.2288234
-0.9019019 0.3646854 -0.2314682
-0.904554 0.3563722 -0.2340534
-0.9071407 0.3480317 -0.236579
-0.9096623 0.3396647 -0.2390447
-0.9121187 0.331272 -0.2414503
-0.9145101 0.3228542 -0.2437957
-0.9168366 0.3144121 -0.2460805
-0.9190982 0.3059464 -0.2483048
-0.9212951 0.2974577 -0.2504683
-0.9234272 0.2889467 -0.2525708
-0.9254947 0.2804142 -0.2546122
-0.9274977 0.2718609 -0.2565923
-0.9294363 0.2632874 -0.258511
-0.9313105 0.2546944 -0.2603682
-0.9331203 0.2460826 -0.2621637
-0.934866 0.2374527 -0.2638973
-0.9365475 0.2288053 -0.265569
-0.938165 0.2201411 -0.2671786
-0.9397184 0.2114608 -0.268726
-0.9412079 0.2027651 -0.2702111
-0.9426335 0.1940546 -0.2716338
-0.9439953 0.1853299 -0.2729939
-0.9452933 0.1765918 -0.2742915
-0.9465277 0.1678409 -0.2755263
-0.9476984 0.1590779 -0.2766983
-0.9488055 0.1503033 -0.2778075
-0.9498491 0.1415179 -0.2788537
-0.9508292 0.1327223 -0.2798368
-0.9517458 0.1239171 -0.2807569
-0.9525991 0.115103 -0.2816138
-0.9533889 0.1062807 -0.2824074
-0.9541155 0.09745072 -0.2831378
-0.9547787 0.08861376 -0.2838048
-0.9553787 0.07977045 -0.2844085
-0.9559155 0.07092143 -0.2849487
-0.956389 0.06206734 -0.2854254
-0.9567994 0.05320881 -0.2858387
-0.9571466 0.04434648 -0.2861884
-0.9574306 0.03548098 -0.2864745
-0.9576516 0.02661295 -0.2866971
-0.9578093 0.01774302 -0.2868562
-0.957904 0.008871827 -0.2869516
-0.9579356 1.12331e-11 -0.2869834
-0.957904 -0.008871827 -0.2869516
-0.9578093 -0.01774302 -0.2868562
-0.9576516 -0.02661295 -0.2866971
-0.9574306 -0.03548098 -0.2864745
-0.9571466 -0.04434648 -0.2861884
-0.9567994 -0.05320881 -0.2858387
-0.956389 -0.06206734 -0.2854254
-0.9559155 -0.07092143 -0.2849487
-0.9553787 -0.07977045 -0.2844085
-0.9547787 -0.08861376 -0.2838048
-0.9541155 -0.09745072 -0.2831378
-0.9533889 -0.1062807 -0.2824074
-0.9525991 -0.115103 -0.2816138
-0.9517458 -0.1239171 -0.2807569
-0.9508292 -0.1327223 -0.2798368
-0.9498491 -0.1415179 -0.2788537
-0.9488055 -0.1503033 -0.2778075
-0.9476984 -0.1590779 -0.2766983
-0.9465277 -0.1678409 -0.2755263
-0.9452933 -0.1765918 -0.2742915
-0.9439953 -0.1853299 -0.2729939
-0.9426335 -0.1940546 -0.2716338
-0.9412079 -0.2027651 -0.2702111
-0.9397184 -0.2114608 -0.268726
-0.938165 -0.2201411 -0.2671786
-0.9365475 -0.2288053 -0.265569
-0.934866 -0.2374527 -0.2638973
-0.9331203 -0.2460826 -0.2621637
-0.9313105 -0.2546944 -0.2603682
-0.9294363 -0.2632874 -0.258511
-0.9274977 -0.2718609 -0.2565923
-0.9254947 -0.2804142 -0.2546122
-0.9234272 -0.2889467 -0.2525708
-0.9212951 -0.2974577 -0.2504683
-0.9190982 -0.3059464 -0.2483048
-0.9168366 -0.3144121 -0.2460805
-0.9145101 -0.3228542 -0.2437957
-0.9121187 -0.331272 -0.2414503
-0.9096623 -0.3396647 -0.2390447
-0.9071407 -0.3480317 -0.236579
-0.904554 -0.3563722 -0.2340534
-0.9019019 -0.3646854 -0.2314682
-0.8991844 -0.3729708 -0.2288234
-0.8964015 -0.3812275 -0.2261194
-0.893553 -0.3894548 -0.2233562
-0.8906389 -0.3976519 -0.2205343
-0.887659 -0.4058182 -0.2176537