# vtk DataFile Version 2.0
Written badly by Kevin Korner
ASCII
DATASET POLYDATA
POINTS 350 FLOAT
0 0 0
0.00286533 0 0
0.005728297 4.274604e-05 -0.0001081688
0.008584657 0.0001235829 -0.0003197979
0.01143084 0.0002380166 -0.0006300752
0.01426389 0.0003817608 -0.001034135
0.01708143 0.0005507683 -0.001527095
0.01988159 0.0007412508 -0.002104087
0.02266298 0.0009496913 -0.002760271
0.0254246 0.00117285 -0.003490854
0.02816587 0.001407765 -0.004291087
0.03088654 0.001651752 -0.005156271
0.03358668 0.001902403 -0.006081742
0.03626668 0.002157583 -0.007062861
0.0389272 0.002415427 -0.008094987
0.04156918 0.002674344 -0.009173434
0.04419384 0.002933018 -0.01029341
0.04680273 0.003190427 -0.01144992
0.04939779 0.00344587 -0.01263759
0.05198147 0.003699036 -0.01385027
0.05455723 0.003950185 -0.01508011
0.05713119 0.004200846 -0.0163138
0.05971088 0.004453805 -0.017535
0.06229983 0.004711035 -0.01873554
0.06490006 0.004974276 -0.01991013
0.06751283 0.005245212 -0.02105474
0.07013893 0.005525518 -0.02216611
0.07277878 0.005816876 -0.02324148
0.0754325 0.006120977 -0.02427847
0.07809999 0.006439514 -0.02527505
0.0807809 0.006774181 -0.02622941
0.08347473 0.007126666 -0.02714001
0.08618078 0.00749864 -0.02800549
0.08889821 0.007891754 -0.0288247
0.09162607 0.00830763 -0.02959669
0.09436326 0.008747855 -0.03032064
0.09710859 0.00921397 -0.03099593
0.09986077 0.009707471 -0.03162207
0.1026184 0.0102298 -0.03219875
0.1053802 0.01078233 -0.03272578
0.1081444 0.01136637 -0.03320311
0.1109097 0.01198317 -0.03363083
0.1136744 0.0126339 -0.03400915
0.1164369 0.01331964 -0.03433841
0.1191956 0.01404142 -0.03461905
0.1219488 0.01480014 -0.03485164
0.124695 0.01559667 -0.03503682
0.1274324 0.01643175 -0.03517536
0.1301595 0.01730605 -0.03526809
0.1328747 0.01822017 -0.03531595
0.1355764 0.01917459 -0.03531993
0.1382631 0.02016974 -0.03528111
0.1409333 0.02120594 -0.03520062
0.1435855 0.02228344 -0.03507964
0.1462185 0.02340241 -0.03491942
0.1488308 0.02456293 -0.03472124
0.1514211 0.02576502 -0.03448642
0.1539883 0.02700863 -0.03421629
0.1565313 0.02829363 -0.03391224
0.1590488 0.02961982 -0.03357564
0.16154 0.03098695 -0.03320792
0.1640038 0.03239471 -0.03281047
0.1664394 0.03384273 -0.0323847
0.1688459 0.0353306 -0.03193204
0.1712227 0.03685784 -0.03145389
0.173569 0.03842396 -0.03095163
0.1758842 0.0400284 -0.03042666
0.1781678 0.04167058 -0.02988033
0.1804193 0.04334989 -0.02931399
0.1826383 0.04506568 -0.02872895
0.1848244 0.04681728 -0.02812652
0.1869773 0.04860399 -0.02750795
0.1890969 0.05042512 -0.02687449
0.1911828 0.05227994 -0.02622733
0.1932349 0.0541677 -0.02556765
0.1952532 0.05608765 -0.02489658
0.1972376 0.05803905 -0.02421522
0.1991881 0.06002114 -0.02352464
0.2011048 0.06203314 -0.02282587
0.2029878 0.06407429 -0.0221199
0.204837 0.06614384 -0.02140768
0.2066528 0.06824101 -0.02069013
0.2084353 0.07036507 -0.01996813
0.2101847 0.07251525 -0.01924253
0.2119012 0.07469082 -0.01851413
0.2135851 0.07689104 -0.0177837
0.2152368 0.0791152 -0.01705199
0.2168564 0.08136257 -0.0163197
0.2184443 0.08363247 -0.01558748
0.2200009 0.0859242 -0.01485599
0.2215265 0.08823709 -0.01412583
0.2230215 0.09057047 -0.01339756
0.2244863 0.09292371 -0.01267174
0.2259212 0.09529617 -0.01194886
0.2273267 0.09768723 -0.01122943
0.2287031 0.1000963 -0.0105139
0.2300509 0.1025228 -0.009802699
0.2313705 0.1049661 -0.009096236
0.2326623 0.1074257 -0.008394892
0.2339266 0.109901 -0.007699028
0.235164 0.1123915 -0.007008982
0.2363748 0.1148968 -0.006325068
0.2375595 0.1174163 -0.005647584
0.2387185 0.1199494 -0.004976804
0.2398521 0.1224959 -0.004312989
0.2409609 0.1250551 -0.003656376
0.2420451 0.1276267 -0.003007192
0.2431053 0.1302102 -0.002365643
0.2441417 0.1328053 -0.001731923
0.2451549 0.1354114 -0.001106211
0.2461451 0.1380283 -0.000488672
0.2471128 0.1406556 0.0001205409
0.2480583 0.1432929 0.0007212865
0.248982 0.1459398 0.001313435
0.2498843 0.1485961 0.001896868
0.2507655 0.1512613 0.002471475
0.2516259 0.1539352 0.003037157
0.252466 0.1566174 0.003593823
0.253286 0.1593078 0.004141389
0.2540862 0.1620059 0.00467978
0.254867 0.1647115 0.005208927
0.2556287 0.1674244 0.00572877
0.2563716 0.1701443 0.006239253
0.257096 0.1728709 0.006740325
0.2578022 0.1756039 0.007231943
0.2584903 0.1783433 0.007714066
0.2591608 0.1810887 0.008186661
0.2598139 0.1838399 0.008649697
0.2604498 0.1865967 0.009103145
0.2610688 0.189359 0.009546984
0.2616712 0.1921264 0.009981193
0.262257 0.1948989 0.01040576
0.2628267 0.1976762 0.01082066
0.2633804 0.2004582 0.01122588
0.2639183 0.2032446 0.01162143
0.2644406 0.2060354 0.01200728
0.2649475 0.2088304 0.01238344
0.2654392 0.2116293 0.0127499
0.2659159 0.2144321 0.01310665
0.2663778 0.2172385 0.0134537
0.2668251 0.2200486 0.01379105
0.2672578 0.222862 0.01411869
0.2676762 0.2256788 0.01443663
0.2680805 0.2284986 0.01474487
0.2684707 0.2313215 0.01504341
0.268847 0.2341473 0.01533225
0.2692096 0.2369759 0.01561141
0.2695585 0.2398071 0.01588088
0.2698939 0.2426408 0.01614067
0.270216 0.245477 0.01639078
0.2705248 0.2483155 0.01663123
0.2708204 0.2511561 0.016862
0.271103 0.2539989 0.01708312
0.2713726 0.2568437 0.01729458
0.2716293 0.2596903 0.01749638
0.2718733 0.2625388 0.01768855
0.2721045 0.2653889 0.01787107
0.2723232 0.2682407 0.01804395
0.2725293 0.2710939 0.01820721
0.2727229 0.2739486 0.01836083
0.2729041 0.2768045 0.01850484
0.273073 0.2796617 0.01863922
0.2732296 0.28252 0.01876399
0.2733739 0.2853794 0.01887915
0.2735061 0.2882398 0.0189847
0.273626 0.291101 0.01908065
0.2737339 0.293963 0.01916699
0.2738297 0.2968257 0.01924373
0.2739135 0.299689 0.01931088
0.2739852 0.3025528 0.01936842
0.274045 0.3054171 0.01941638
0.2740928 0.3082818 0.01945474
0.2741286 0.3111468 0.01948351
0.2741525 0.3140119 0.01950269
0.2741644 0.3168772 0.01951228
0.2741644 0.3197426 0.01951228
0.2741525 0.3226078 0.01950269
0.2741286 0.325473 0.01948351
0.2740928 0.328338 0.01945474
0.274045 0.3312026 0.01941638
0.2739852 0.3340669 0.01936842
0.2739135 0.3369308 0.01931088
0.2738297 0.3397941 0.01924373
0.2737339 0.3426568 0.01916699
0.273626 0.3455188 0.01908065
0.2735061 0.34838 0.0189847
0.2733739 0.3512404 0.01887915
0.2732296 0.3540997 0.01876399
0.273073 0.3569581 0.01863922
0.2729041 0.3598152 0.01850484
0.2727229 0.3626712 0.01836083
0.2725293 0.3655259 0.01820721
0.2723232 0.3683791 0.01804395
0.2721045 0.3712308 0.01787107
0.2718733 0.374081 0.01768855
0.2716293 0.3769294 0.01749638
0.2713726 0.3797761 0.01729458
0.271103 0.3826209 0.01708312
0.2708204 0.3854636 0.016862
0.2705248 0.3883043 0.01663123
0.270216 0.3911428 0.01639078
0.2698939 0.393979 0.01614067
0.2695585 0.3968127 0.01588088
0.2692096 0.3996439 0.01561141
0.268847 0.4024725 0.01533225
0.2684707 0.4052983 0.01504341
0.2680805 0.4081211 0.01474487
0.2676762 0.410941 0.01443663
0.2672578 0.4137577 0.01411869
0.2668251 0.4165712 0.01379105
0.2663778 0.4193812 0.0134537
0.2659159 0.4221877 0.01310665
0.2654392 0.4249905 0.0127499
0.2649475 0.4277894 0.01238344
0.2644406 0.4305844 0.01200728
0.2639183 0.4333751 0.01162143
0.2633804 0.4361616 0.01122588
0.2628267 0.4389436 0.01082066
0.262257 0.4417209 0.01040576
0.2616712 0.4444933 0.009981193
0.2610688 0.4472608 0.009546984
0.2604498 0.450023 0.009103145
0.2598139 0.4527799 0.008649697
0.2591608 0.4555311 0.008186661
0.2584903 0.4582765 0.007714067
0.2578022 0.4610158 0.007231943
0.257096 0.4637489 0.006740325
0.2563716 0.4664755 0.006239253
0.2556287 0.4691954 0.00572877
0.254867 0.4719082 0.005208927
0.2540862 0.4746139 0.00467978
0.253286 0.477312 0.004141389
0.252466 0.4800023 0.003593823
0.2516259 0.4826846 0.003037157
0.2507655 0.4853585 0.002471475
0.2498843 0.4880237 0.001896868
0.248982 0.49068 0.001313435
0.2480583 0.4933269 0.0007212866
0.2471128 0.4959642 0.0001205409
0.2461451 0.4985914 -0.0004886719
0.2451549 0.5012083 -0.001106211
0.2441417 0.5038145 -0.001731923
0.2431053 0.5064096 -0.002365643
0.2420451 0.5089931 -0.003007192
0.2409609 0.5115647 -0.003656376
0.2398521 0.5141239 -0.004312989
0.2387185 0.5166703 -0.004976804
0.2375595 0.5192035 -0.005647584
0.2363748 0.521723 -0.006325068
0.235164 0.5242282 -0.007008982
0.2339266 0.5267188 -0.007699028
0.2326623 0.5291941 -0.008394892
0.2313705 0.5316537 -0.009096236
0.2300509 0.534097 -0.009802699
0.2287031 0.5365235 -0.0105139
0.2273267 0.5389325 -0.01122943
0.2259212 0.5413236 -0.01194886
0.2244863 0.5436961 -0.01267174
0.2230215 0.5460493 -0.01339756
0.2215265 0.5483827 -0.01412583
0.2200009 0.5506956 -0.01485599
0.2184443 0.5529873 -0.01558748
0.2168564 0.5552572 -0.0163197
0.2152368 0.5575046 -0.01705199
0.2135851 0.5597287 -0.0177837
0.2119012 0.561929 -0.01851413
0.2101847 0.5641045 -0.01924253
0.2084353 0.5662547 -0.01996813
0.2066528 0.5683788 -0.02069013
0.204837 0.5704759 -0.02140768
0.2029878 0.5725455 -0.0221199
0.2011048 0.5745866 -0.02282587
0.1991881 0.5765986 -0.02352464
0.1972376 0.5785807 -0.02421522
0.1952532 0.5805321 -0.02489658
0.1932349 0.5824521 -0.02556765
0.1911828 0.5843398 -0.02622733
0.1890969 0.5861946 -0.02687449
0.1869773 0.5880158 -0.02750795
0.1848244 0.5898025 -0.02812652
0.1826383 0.5915541 -0.02872895
0.1804193 0.5932699 -0.02931399
0.1781678 0.5949492 -0.02988033
0.1758842 0.5965914 -0.03042666
0.173569 0.5981958 -0.03095163
0.1712227 0.5997619 -0.03145389
0.1688459 0.6012892 -0.03193204
0.1664394 0.602777 -0.0323847
0.1640038 0.6042251 -0.03281047
0.16154 0.6056328 -0.03320792
0.1590488 0.607 -0.03357564
0.1565313 0.6083261 -0.03391224
0.1539883 0.6096111 -0.03421629
0.1514211 0.6108547 -0.03448642
0.1488308 0.6120568 -0.03472124
0.1462185 0.6132174 -0.03491942
0.1435855 0.6143363 -0.03507964
0.1409333 0.6154138 -0.03520062
0.1382631 0.61645 -0.03528111
0.1355764 0.6174452 -0.03531993
0.1328747 0.6183996 -0.03531595
0.1301595 0.6193137 -0.03526809
0.1274324 0.620188 -0.03517536
0.124695 0.6210231 -0.03503682
0.1219488 0.6218196 -0.03485164
0.1191956 0.6225784 -0.03461905
0.1164369 0.6233001 -0.03433841
0.1136744 0.6239859 -0.03400915
0.1109097 0.6246366 -0.03363083
0.1081444 0.6252534 -0.03320311
0.1053802 0.6258374 -0.03272578
0.1026184 0.62639 -0.03219875
0.09986077 0.6269123 -0.03162207
0.09710859 0.6274058 -0.03099593
0.09436326 0.6278719 -0.03032064
0.09162607 0.6283121 -0.02959669
0.08889821 0.628728 -0.0288247
0.08618078 0.6291211 -0.02800549
0.08347473 0.6294931 -0.02714001
0.0807809 0.6298456 -0.02622941
0.07809999 0.6301803 -0.02527505
0.0754325 0.6304988 -0.02427847
0.07277878 0.6308029 -0.02324148
0.07013893 0.6310943 -0.02216611
0.06751283 0.6313746 -0.02105474
0.06490006 0.6316455 -0.01991013
0.06229983 0.6319087 -0.01873554
0.05971088 0.632166 -0.017535
0.05713119 0.6324189 -0.0163138
0.05455723 0.6326696 -0.01508011
0.05198147 0.6329207 -0.01385027
0.04939779 0.6331739 -0.01263759
0.04680273 0.6334293 -0.01144992
0.04419384 0.6336868 -0.01029341
0.04156918 0.6339454 -0.009173434
0.0389272 0.6342043 -0.008094987
0.03626668 0.6344622 -0.007062861
0.03358668 0.6347174 -0.006081742
0.03088654 0.634968 -0.005156271
0.02816587 0.635212 -0.004291087
0.0254246 0.6354469 -0.003490854
0.02266298 0.6356701 -0.002760271
0.01988159 0.6358785 -0.002104087
0.01708143 0.636069 -0.001527095
0.01426389 0.636238 -0.001034135
0.01143084 0.6363818 -0.0006300752
0.008584657 0.6364962 -0.0003197979
0.005728297 0.636577 -0.0001081688
0.00286533 0.6366198 0
0 0.6366198 0

LINES 349 1047
2 0 1
2 1 2
2 2 3
2 3 4
2 4 5
2 5 6
2 6 7
2 7 8
2 8 9
2 9 10
2 10 11
2 11 12
2 12 13
2 13 14
2 14 15
2 15 16
2 16 17
2 17 18
2 18 19
2 19 20
2 20 21
2 21 22
2 22 23
2 23 24
2 24 25
2 25 26
2 26 27
2 27 28
2 28 29
2 29 30
2 30 31
2 31 32
2 32 33
2 33 34
2 34 35
2 35 36
2 36 37
2 37 38
2 38 39
2 39 40
2 40 41
2 41 42
2 42 43
2 43 44
2 44 45
2 45 46
2 46 47
2 47 48
2 48 49
2 49 50
2 50 51
2 51 52
2 52 53
2 53 54
2 54 55
2 55 56
2 56 57
2 57 58
2 58 59
2 59 60
2 60 61
2 61 62
2 62 63
2 63 64
2 64 65
2 65 66
2 66 67
2 67 68
2 68 69
2 69 70
2 70 71
2 71 72
2 72 73
2 73 74
2 74 75
2 75 76
2 76 77
2 77 78
2 78 79
2 79 80
2 80 81
2 81 82
2 82 83
2 83 84
2 84 85
2 85 86
2 86 87
2 87 88
2 88 89
2 89 90
2 90 91
2 91 92
2 92 93
2 93 94
2 94 95
2 95 96
2 96 97
2 97 98
2 98 99
2 99 100
2 100 101
2 101 102
2 102 103
2 103 104
2 104 105
2 105 106
2 106 107
2 107 108
2 108 109
2 109 110
2 110 111
2 111 112
2 112 113
2 113 114
2 114 115
2 115 116
2 116 117
2 117 118
2 118 119
2 119 120
2 120 121
2 121 122
2 122 123
2 123 124
2 124 125
2 125 126
2 126 127
2 127 128
2 128 129
2 129 130
2 130 131
2 131 132
2 132 133
2 133 134
2 134 135
2 135 136
2 136 137
2 137 138
2 138 139
2 139 140
2 140 141
2 141 142
2 142 143
2 143 144
2 144 145
2 145 146
2 146 147
2 147 148
2 148 149
2 149 150
2 150 151
2 151 152
2 152 153
2 153 154
2 154 155
2 155 156
2 156 157
2 157 158
2 158 159
2 159 160
2 160 161
2 161 162
2 162 163
2 163 164
2 164 165
2 165 166
2 166 167
2 167 168
2 168 169
2 169 170
2 170 171
2 171 172
2 172 173
2 173 174
2 174 175
2 175 176
2 176 177
2 177 178
2 178 179
2 179 180
2 180 181
2 181 182
2 182 183
2 183 184
2 184 185
2 185 186
2 186 187
2 187 188
2 188 189
2 189 190
2 190 191
2 191 192
2 192 193
2 193 194
2 194 195
2 195 196
2 196 197
2 197 198
2 198 199
2 199 200
2 200 201
2 201 202
2 202 203
2 203 204
2 204 205
2 205 206
2 206 207
2 207 208
2 208 209
2 209 210
2 210 211
2 211 212
2 212 213
2 213 214
2 214 215
2 215 216
2 216 217
2 217 218
2 218 219
2 219 220
2 220 221
2 221 222
2 222 223
2 223 224
2 224 225
2 225 226
2 226 227
2 227 228
2 228 229
2 229 230
2 230 231
2 231 232
2 232 233
2 233 234
2 234 235
2 235 236
2 236 237
2 237 238
2 238 239
2 239 240
2 240 241
2 241 242
2 242 243
2 243 244
2 244 245
2 245 246
2 246 247
2 247 248
2 248 249
2 249 250
2 250 251
2 251 252
2 252 253
2 253 254
2 254 255
2 255 256
2 256 257
2 257 258
2 258 259
2 259 260
2 260 261
2 261 262
2 262 263
2 263 264
2 264 265
2 265 266
2 266 267
2 267 268
2 268 269
2 269 270
2 270 271
2 271 272
2 272 273
2 273 274
2 274 275
2 275 276
2 276 277
2 277 278
2 278 279
2 279 280
2 280 281
2 281 282
2 282 283
2 283 284
2 284 285
2 285 286
2 286 287
2 287 288
2 288 289
2 289 290
2 290 291
2 291 292
2 292 293
2 293 294
2 294 295
2 295 296
2 296 297
2 297 298
2 298 299
2 299 300
2 300 301
2 301 302
2 302 303
2 303 304
2 304 305
2 305 306
2 306 307
2 307 308
2 308 309
2 309 310
2 310 311
2 311 312
2 312 313
2 313 314
2 314 315
2 315 316
2 316 317
2 317 318
2 318 319
2 319 320
2 320 321
2 321 322
2 322 323
2 323 324
2 324 325
2 325 326
2 326 327
2 327 328
2 328 329
2 329 330
2 330 331
2 331 332
2 332 333
2 333 334
2 334 335
2 335 336
2 336 337
2 337 338
2 338 339
2 339 340
2 340 341
2 341 342
2 342 343
2 343 344
2 344 345
2 345 346
2 346 347
2 347 348
2 348 349


POINT_DATA 350
SCALARS a FLOAT 1
LOOKUP_TABLE default
0.0005894628
0.0005894628
0.0005894628
0.0005894628
0.0005894628
0.0005894628
0.0005894628
0.0005894628
0.0005894628
0.0005894628
0.0005894628
0.0005894628
0.0005894628
0.0005894628
0.0005894628
0.0005894628
0.0005894628
0.0005894628
0.0005894628
0.0005894628
0.0005894628
0.0005894628
0.0005894628
0.0005894628
0.0005894628
0.0005894628
0.0005894628
0.0005894628
0.0005894628
0.0005894628
0.0005894628
0.0005894628
0.0005894628
0.0005894628
0.0005894628
0.0005894628
0.0005894628
0.0005894628
0.0005894628
0.0005894628
0.0005894628
0.0005894628
0.0005894628
0.0005894628
0.0005894628
0.0005894628
0.0005894628
0.0005894628
0.0005894628
0.0005894628
0.0005894628
0.0005894628
0.0005894628
0.0005894628
0.0005894628
0.0005894628
0.0005894628
0.0005894628
0.0005894628
0.0005894628
0.0005894628
0.0005894628
0.0005894628
0.0005894628
0.0005894628
0.0005894628
0.0005894628
0.0005894628
0.0005894628
0.0005894628
0.0005894628
0.0005894628
0.0005894628
0.0005894628
0.0005894628
0.0005894628
0.0005894628
0.0005894628
0.0005894628
0.0005894628
0.0005894628
0.0005894628
0.0005894628
0.0005894628
0.0005894628
0.0005894628
0.0005894628
0.0005894628
0.0005894628
0.0005894628
0.0005894628
0.0005894628
0.0005894628
0.0005894628
0.0005894628
0.0005894628
0.0005894628
0.0005894628
0.0005894628
0.0005894628
0.0005894628
0.0005894628
0.0005894628
0.0005894628
0.0005894628
0.0005894628
0.0005894628
0.0005894628
0.0005894628
0.0005894628
0.0005894628
0.0005894628
0.0005894628
0.0005894628
0.0005894628
0.0005894628
0.0005894628
0.0005894628
0.0005894628
0.0005894628
0.0005894628
0.0005894628
0.0005894628
0.0005894628
0.0005894628
0.0005894628
0.0005894628
0.0005894628
0.0005894628
0.0005894628
0.0005894628
0.0005894628
0.0005894628
0.0005894628
0.0005894628
0.0005894628
0.0005894628
0.0005894628
0.0005894628
0.0005894628
0.0005894628
0.0005894628
0.0005894628
0.0005894628
0.0005894628
0.0005894628
0.0005894628
0.0005894628
0.0005894628
0.0005894628
0.0005894628
0.0005894628
0.0005894628
0.0005894628
0.0005894628
0.0005894628
0.0005894628
0.0005894628
0.0005894628
0.0005894628
0.0005894628
0.0005894628
0.0005894628
0.0005894628
0.0005894628
0.0005894628
0.0005894628
0.0005894628
0.0005894628
0.0005894628
0.0005894628
0.0005894628
0.0005894628
0.0005894628
0.0005894628
0.0005894628
0.0005894628
0.0005894628
0.0005894628
0.0005894628
0.0005894628
0.0005894628
0.0005894628
0.0005894628
0.0005894628
0.0005894628
0.0005894628
0.0005894628
0.0005894628
0.0005894628
0.0005894628
0.0005894628
0.0005894628
0.0005894628
0.0005894628
0.0005894628
0.0005894628
0.0005894628
0.0005894628
0.0005894628
0.0005894628
0.0005894628
0.0005894628
0.0005894628
0.0005894628
0.0005894628
0.0005894628
0.0005894628
0.0005894628
0.0005894628
0.0005894628
0.0005894628
0.0005894628
0.0005894628
0.0005894628
0.0005894628
0.0005894628
0.0005894628
0.0005894628
0.0005894628
0.0005894628
0.0005894628
0.0005894628
0.0005894628
0.0005894628
0.0005894628
0.0005894628
0.0005894628
0.0005894628
0.0005894628
0.0005894628
0.0005894628
0.0005894628
0.0005894628
0.0005894628
0.0005894628
0.0005894628
0.0005894628
0.0005894628
0.0005894628
0.0005894628
0.0005894628
0.0005894628
0.0005894628
0.0005894628
0.0005894628
0.0005894628
0.0005894628
0.0005894628
0.0005894628
0.0005894628
0.0005894628
0.0005894628
0.0005894628
0.0005894628
0.0005894628
0.0005894628
0.0005894628
0.0005894628
0.0005894628
0.0005894628
0.0005894628
0.0005894628
0.0005894628
0.0005894628
0.0005894628
0.0005894628
0.0005894628
0.0005894628
0.0005894628
0.0005894628
0.0005894628
0.0005894628
0.0005894628
0.0005894628
0.0005894628
0.0005894628
0.0005894628
0.0005894628
0.0005894628
0.0005894628
0.0005894628
0.0005894628
0.0005894628
0.0005894628
0.0005894628
0.0005894628
0.0005894628
0.0005894628
0.0005894628
0.0005894628
0.0005894628
0.0005894628
0.0005894628
0.0005894628
0.0005894628
0.0005894628
0.0005894628
0.0005894628
0.0005894628
0.0005894628
0.0005894628
0.0005894628
0.0005894628
0.0005894628
0.0005894628
0.0005894628
0.0005894628
0.0005894628
0.0005894628
0.0005894628
0.0005894628
0.0005894628
0.0005894628
0.0005894628
0.0005894628
0.0005894628
0.0005894628
0.0005894628
0.0005894628
0.0005894628
0.0005894628
0.0005894628
0.0005894628
0.0005894628
0.0005894628
0.0005894628
0.0005894628
0.0005894628
0.0005894628
0.0005894628
0.0005894628
0.0005894628
0.0005894628
0.0005894628
0.0005894628
0.0005894628
0.0005894628
0.0005894628
0.0005894628
0.0005894628
0.0005894628
0.0005894628
0.0005894628
0.0005894628
0.0005894628
0.0005894628
0.0005894628
0.0005894628
0.0005894628


SCALARS b FLOAT 1
LOOKUP_TABLE default
0.02357851
0.02357851
0.02357851
0.02357851
0.02357851
0.02357851
0.02357851
0.02357851
0.02357851
0.02357851
0.02357851
0.02357851
0.02357851
0.02357851
0.02357851
0.02357851
0.02357851
0.02357851
0.02357851
0.02357851
0.02357851
0.02357851
0.02357851
0.02357851
0.02357851
0.02357851
0.02357851
0.02357851
0.02357851
0.02357851
0.02357851
0.02357851
0.02357851
0.02357851
0.02357851
0.02357851
0.02357851
0.02357851
0.02357851
0.02357851
0.02357851
0.02357851
0.02357851
0.02357851
0.02357851
0.02357851
0.02357851
0.02357851
0.02357851
0.02357851
0.02357851
0.02357851
0.02357851
0.02357851
0.02357851
0.02357851
0.02357851
0.02357851
0.02357851
0.02357851
0.02357851
0.02357851
0.02357851
0.02357851
0.02357851
0.02357851
0.02357851
0.02357851
0.02357851
0.02357851
0.02357851
0.02357851
0.02357851
0.02357851
0.02357851
0.02357851
0.02357851
0.02357851
0.02357851
0.02357851
0.02357851
0.02357851
0.02357851
0.02357851
0.02357851
0.02357851
0.02357851
0.02357851
0.02357851
0.02357851
0.02357851
0.02357851
0.02357851
0.02357851
0.02357851
0.02357851
0.02357851
0.02357851
0.02357851
0.02357851
0.02357851
0.02357851
0.02357851
0.02357851
0.02357851
0.02357851
0.02357851
0.02357851
0.02357851
0.02357851
0.02357851
0.02357851
0.02357851
0.02357851
0.02357851
0.02357851
0.02357851
0.02357851
0.02357851
0.02357851
0.02357851
0.02357851
0.02357851
0.02357851
0.02357851
0.02357851
0.02357851
0.02357851
0.02357851
0.02357851
0.02357851
0.02357851
0.02357851
0.02357851
0.02357851
0.02357851
0.02357851
0.02357851
0.02357851
0.02357851
0.02357851
0.02357851
0.02357851
0.02357851
0.02357851
0.02357851
0.02357851
0.02357851
0.02357851
0.02357851
0.02357851
0.02357851
0.02357851
0.02357851
0.02357851
0.02357851
0.02357851
0.02357851
0.02357851
0.02357851
0.02357851
0.02357851
0.02357851
0.02357851
0.02357851
0.02357851
0.02357851
0.02357851
0.02357851
0.02357851
0.02357851
0.02357851
0.02357851
0.02357851
0.02357851
0.02357851
0.02357851
0.02357851
0.02357851
0.02357851
0.02357851
0.02357851
0.02357851
0.02357851
0.02357851
0.02357851
0.02357851
0.02357851
0.02357851
0.02357851
0.02357851
0.02357851
0.02357851
0.02357851
0.02357851
0.02357851
0.02357851
0.02357851
0.02357851
0.02357851
0.02357851
0.02357851
0.02357851
0.02357851
0.02357851
0.02357851
0.02357851
0.02357851
0.02357851
0.02357851
0.02357851
0.02357851
0.02357851
0.02357851
0.02357851
0.02357851
0.02357851
0.02357851
0.02357851
0.02357851
0.02357851
0.02357851
0.02357851
0.02357851
0.02357851
0.02357851
0.02357851
0.02357851
0.02357851
0.02357851
0.02357851
0.02357851
0.02357851
0.02357851
0.02357851
0.02357851
0.02357851
0.02357851
0.02357851
0.02357851
0.02357851
0.02357851
0.02357851
0.02357851
0.02357851
0.02357851
0.02357851
0.02357851
0.02357851
0.02357851
0.02357851
0.02357851
0.02357851
0.02357851
0.02357851
0.02357851
0.02357851
0.02357851
0.02357851
0.02357851
0.02357851
0.02357851
0.02357851
0.02357851
0.02357851
0.02357851
0.02357851
0.02357851
0.02357851
0.02357851
0.02357851
0.02357851
0.02357851
0.02357851
0.02357851
0.02357851
0.02357851
0.02357851
0.02357851
0.02357851
0.02357851
0.02357851
0.02357851
0.02357851
0.02357851
0.02357851
0.02357851
0.02357851
0.02357851
0.02357851
0.02357851
0.02357851
0.02357851
0.02357851
0.02357851
0.02357851
0.02357851
0.02357851
0.02357851
0.02357851
0.02357851
0.02357851
0.02357851
0.02357851
0.02357851
0.02357851
0.02357851
0.02357851
0.02357851
0.02357851
0.02357851
0.02357851
0.02357851
0.02357851
0.02357851
0.02357851
0.02357851
0.02357851
0.02357851
0.02357851
0.02357851
0.02357851
0.02357851
0.02357851
0.02357851
0.02357851
0.02357851
0.02357851
0.02357851
0.02357851
0.02357851
0.02357851
0.02357851
0.02357851
0.02357851
0.02357851
0.02357851
0.02357851
0.02357851
0.02357851
0.02357851
0.02357851
0.02357851
0.02357851
0.02357851
0.02357851
0.02357851
0.02357851
0.02357851
0.02357851


VECTORS d1 FLOAT
0 -0.376871 0.9262658
0.04058827 -0.35506 0.933962
0.07903735 -0.3316513 0.9400854
0.1153293 -0.3069437 0.9447141
0.1494657 -0.2812004 0.9479379
0.1814627 -0.2546518 0.9498546
0.2113462 -0.2274996 0.9505665
0.2391488 -0.1999198 0.9501789
0.264907 -0.1720658 0.948798
0.2886582 -0.1440714 0.9465305
0.3104386 -0.1160529 0.9434827
0.3302811 -0.08811249 0.9397609
0.3482117 -0.0603394 0.935472
0.3642469 -0.03281286 0.9307242
0.3783887 -0.005604132 0.9256298
0.3906164 0.02122086 0.9203089
0.4008735 0.04759805 0.9148961
0.4090403 0.07346002 0.9095547
0.4148682 0.09872584 0.9045096
0.4177718 0.1232773 0.9001497
0.4158533 0.1469253 0.8974848
0.4079524 0.1701316 0.8970117
0.3968825 0.1932917 0.8972862
0.3836375 0.2164032 0.8977705
0.3686605 0.2394223 0.8982018
0.3522119 0.262299 0.8984131
0.334471 0.2849829 0.8982839
0.3155743 0.3074243 0.8977211
0.2956333 0.329575 0.89665
0.2747442 0.351388 0.8950095
0.2529933 0.3728182 0.8927491
0.2304602 0.3938221 0.8898271
0.2072199 0.4143581 0.8862095
0.1833441 0.4343867 0.8818691
0.1589022 0.4538704 0.8767849
0.1339617 0.4727743 0.8709413
0.1085884 0.4910657 0.8643281
0.08284708 0.5087145 0.8569399
0.05680082 0.5256931 0.8487758
0.03051162 0.5419769 0.8398393
0.004040066 0.5575439 0.8301376
-0.02255471 0.572375 0.8196817
-0.04921513 0.586454 0.808486
-0.07588536 0.5997675 0.7965679
-0.1025114 0.612305 0.7839477
-0.1290411 0.6240588 0.7706485
-0.1554246 0.635024 0.7566952
-0.1816141 0.6451985 0.7421153
-0.2075643 0.6545827 0.7269378
-0.2332322 0.6631796 0.711193
-0.2585773 0.6709946 0.694913
-0.2835619 0.6780354 0.6781303
-0.3081507 0.6843117 0.6608787
-0.3323111 0.6898356 0.6431922
-0.3560134 0.6946206 0.6251053
-0.3792302 0.6986823 0.6066526
-0.4019372 0.7020377 0.5878687
-0.4241123 0.704705 0.5687878
-0.4457364 0.7067039 0.5494439
-0.4667926 0.7080552 0.5298702
-0.4872667 0.7087804 0.5100996
-0.5071467 0.7089018 0.4901637
-0.526423 0.7084425 0.4700936
-0.5450882 0.707426 0.4499193
-0.5631368 0.7058761 0.4296695
-0.5805656 0.7038168 0.4093721
-0.5973731 0.7012722 0.3890536
-0.6135594 0.6982665 0.3687394
-0.6291266 0.6948237 0.3484534
-0.644078 0.6909676 0.3282184
-0.6584184 0.6867217 0.308056
-0.672154 0.6821092 0.2879863
-0.6852921 0.6771526 0.2680282
-0.697841 0.6718743 0.2481995
-0.70981 0.6662957 0.2285164
-0.7212094 0.660438 0.2089943
-0.73205 0.6543216 0.1896471
-0.7423435 0.647966 0.1704878
-0.7521021 0.6413904 0.151528
-0.7613384 0.634613 0.1327784
-0.7700655 0.6276514 0.1142488
-0.7782969 0.6205224 0.09594774
-0.7860461 0.613242 0.07788309
-0.7933272 0.6058255 0.06006168
-0.8001541 0.5982877 0.04248956
-0.8065409 0.5906422 0.02517198
-0.8125018 0.5829022 0.008113432
-0.818051 0.5750802 -0.008682267
-0.8232025 0.5671878 -0.02521196
-0.8279704 0.5592361 -0.04147311
-0.8323686 0.5512354 -0.05746374
-0.8364108 0.5431955 -0.07318238
-0.8401106 0.5351255 -0.08862808
-0.8434813 0.5270339 -0.1038003
-0.8465362 0.5189287 -0.118699
-0.8492882 0.5108172 -0.1333244
-0.8517499 0.5027063 -0.1476771
-0.8539338 0.4946023 -0.1617581
-0.855852 0.4865111 -0.1755685
-0.8575164 0.478438 -0.18911
-0.8589387 0.4703881 -0.2023841
-0.86013 0.4623659 -0.2153928
-0.8611015 0.4543755 -0.2281383
-0.8618639 0.4464206 -0.2406228
-0.8624275 0.4385047 -0.2528487
-0.8628026 0.4306307 -0.2648186
-0.8629989 0.4228016 -0.2765351
-0.8630261 0.4150196 -0.2880011
-0.8628934 0.4072871 -0.2992193
-0.8626099 0.3996057 -0.3101926
-0.8621842 0.3919773 -0.320924
-0.8616248 0.3844032 -0.3314165
-0.8609399 0.3768846 -0.3416732
-0.8601373 0.3694224 -0.3516971
-0.8592249 0.3620175 -0.3614912
-0.8582099 0.3546706 -0.3710587
-0.8570996 0.3473819 -0.3804026
-0.8559009 0.3401518 -0.3895259
-0.8546204 0.3329806 -0.3984318
-0.8532647 0.325868 -0.4071233
-0.8518401 0.3188142 -0.4156032
-0.8503524 0.3118187 -0.4238748
-0.8488077 0.3048813 -0.4319407
-0.8472115 0.2980016 -0.4398041
-0.8455693 0.291179 -0.4474676
-0.8438863 0.284413 -0.4549342
-0.8421676 0.2777028 -0.4622066
-0.840418 0.2710476 -0.4692875
-0.8386423 0.2644467 -0.4761796
-0.8368451 0.2578993 -0.4828854
-0.8350306 0.2514043 -0.4894076
-0.8332032 0.2449608 -0.4957486
-0.8313669 0.2385678 -0.5019109
-0.8295256 0.2322242 -0.5078968
-0.8276832 0.225929 -0.5137087
-0.8258432 0.2196811 -0.5193488
-0.8240093 0.2134792 -0.5248193
-0.8221847 0.2073223 -0.5301224
-0.8203727 0.2012092 -0.5352602
-0.8185765 0.1951387 -0.5402345
-0.8167991 0.1891095 -0.5450475
-0.8150434 0.1831204 -0.549701
-0.8133122 0.1771703 -0.5541967
-0.811608 0.1712578 -0.5585366
-0.8099337 0.1653818 -0.5627222
-0.8082915 0.159541 -0.5667553
-0.8066838 0.1537342 -0.5706374
-0.805113 0.14796 -0.57437
-0.8035812 0.1422173 -0.5779546
-0.8020905 0.1365048 -0.5813925
-0.8006428 0.1308213 -0.5846853
-0.7992401 0.1251656 -0.587834
-0.7978842 0.1195363 -0.59084
-0.7965768 0.1139324 -0.5937044
-0.7953195 0.1083526 -0.5964283
-0.7941138 0.1027956 -0.5990128
-0.7929614 0.09726025 -0.6014588
-0.7918634 0.09174541 -0.6037674
-0.7908214 0.08624985 -0.6059394
-0.7898363 0.08077239 -0.6079756
-0.7889096 0.07531185 -0.6098769
-0.7880421 0.06986708 -0.6116439
-0.7872349 0.06443691 -0.6132774
-0.7864889 0.05902019 -0.6147778
-0.785805 0.05361577 -0.616146
-0.7851839 0.04822252 -0.6173822
-0.7846263 0.04283929 -0.6184871
-0.7841329 0.03746497 -0.619461
-0.7837042 0.03209842 -0.6203043
-0.7833406 0.02673853 -0.6210174
-0.7830426 0.02138418 -0.6216004
-0.7828104 0.01603426 -0.6220536
-0.7826445 0.01068767 -0.6223772
-0.7825448 0.00534328 -0.6225714
-0.7825116 1.008529e-10 -0.6226361
-0.7825448 -0.00534328 -0.6225714
-0.7826445 -0.01068767 -0.6223772
-0.7828104 -0.01603426 -0.6220536
-0.7830426 -0.02138418 -0.6216004
-0.7833406 -0.02673853 -0.6210174
-0.7837042 -0.03209842 -0.6203043
-0.7841329 -0.03746497 -0.619461
-0.7846263 -0.04283929 -0.6184871
-0.7851839 -0.04822252 -0.6173822
-0.785805 -0.05361577 -0.616146
-0.7864889 -0.05902019 -0.6147778
-0.7872349 -0.06443691 -0.6132774
-0.7880421 -0.06986708 -0.6116439
-0.7889096 -0.07531185 -0.6098769
-0.7898363 -0.08077239 -0.6079756
-0.7908214 -0.08624985 -0.6059394
-0.7918634 -0.09174541 -0.6037674
-0.7929614 -0.09726025 -0.6014588
-0.7941138 -0.1027956 -0.5990128
-0.7953195 -0.1083526 -0.5964283
-0.7965768 -0.1139324 -0.5937044
-0.7978842 -0.1195363 -0.59084
-0.7992401 -0.1251656 -0.587834
-0.8006428 -0.1308213 -0.5846853
-0.8020905 -0.1365048 -0.5813925
-0.8035812 -0.1422173 -0.5779546
-0.805113 -0.14796 -0.57437
-0.8066838 -0.1537342 -0.5706374
-0.8082915 -0.159541 -0.5667553
-0.8099337 -0.1653818 -0.5627222
-0.811608 -0.1712578 -0.5585366
-0.8133122 -0.1771703 -0.5541967
-0.8150434 -0.1831204 -0.549701
-0.8167991 -0.1891095 -0.5450475
-0.8185765 -0.1951387 -0.5402345
-0.8203727 -0.2012092 -0.5352602
-0.8221847 -0.2073223 -0.5301224
-0.8240093 -0.2134792 -0.5248193
-0.8258432 -0.2196811 -0.5193488
-0.8276832 -0.225929 -0.5137087
-0.8295256 -0.2322242 -0.5078968
-0.8313669 -0.2385678 -0.5019109
-0.8332032 -0.2449608 -0.4957486