# vtk DataFile Version 2.0
Written badly by Kevin Korner
ASCII
DATASET POLYDATA
POINTS 350 FLOAT
0 0 0
0.00286533 0 0
0.005730539 2.617474e-05 -1.389037e-06
0.008595389 7.851808e-05 -4.14816e-06
0.01145964 0.0001570217 -8.258389e-06
0.01432305 0.000261675 -1.370071e-05
0.01718539 0.0003924654 -2.04561e-05
0.02004641 0.0005493778 -2.850548e-05
0.02290587 0.0007323953 -3.782977e-05
0.02576354 0.0009414984 -4.840986e-05
0.02861918 0.001176666 -6.022664e-05
0.03147255 0.001437874 -7.326096e-05
0.03432341 0.001725096 -8.749367e-05
0.03717153 0.002038306 -0.0001029056
0.04001666 0.002377472 -0.0001194776
0.04285858 0.002742562 -0.0001371904
0.04569705 0.003133543 -0.0001560249
0.04853183 0.003550377 -0.0001759619
0.05136268 0.003993025 -0.0001969822
0.05418938 0.004461447 -0.0002190666
0.05701168 0.0049556 -0.0002421959
0.05982936 0.005475438 -0.000266351
0.06264217 0.006020915 -0.0002915126
0.0654499 0.00659198 -0.0003176616
0.06825229 0.007188584 -0.0003447788
0.07104914 0.007810671 -0.0003728451
0.07384019 0.008458187 -0.0004018413
0.07662523 0.009131074 -0.0004317485
0.07940403 0.009829271 -0.0004625474
0.08217634 0.01055272 -0.000494219
0.08494195 0.01130135 -0.0005267442
0.08770063 0.0120751 -0.0005601041
0.09045215 0.0128739 -0.0005942797
0.09319629 0.01369769 -0.0006292519
0.09593281 0.01454638 -0.000665002
0.09866149 0.01541991 -0.0007015109
0.1013821 0.01631819 -0.0007387598
0.1040945 0.01724116 -0.0007767299
0.1067983 0.01818873 -0.0008154025
0.1094934 0.01916081 -0.0008547587
0.1121796 0.02015733 -0.0008947799
0.1148566 0.0211782 -0.0009354475
0.1175242 0.02222333 -0.0009767429
0.1201822 0.02329263 -0.001018647
0.1228303 0.02438601 -0.001061143
0.1254685 0.02550337 -0.00110421
0.1280964 0.02664463 -0.001147831
0.1307138 0.02780967 -0.001191988
0.1333205 0.0289984 -0.001236663
0.1359163 0.03021073 -0.001281836
0.138501 0.03144654 -0.00132749
0.1410745 0.03270573 -0.001373607
0.1436363 0.0339882 -0.001420168
0.1461865 0.03529384 -0.001467157
0.1487247 0.03662253 -0.001514555
0.1512507 0.03797416 -0.001562343
0.1537644 0.03934862 -0.001610505
0.1562656 0.04074579 -0.001659023
0.1587539 0.04216555 -0.001707879
0.1612293 0.04360779 -0.001757056
0.1636916 0.04507238 -0.001806536
0.1661405 0.0465592 -0.001856302
0.1685758 0.04806812 -0.001906337
0.1709973 0.04959902 -0.001956623
0.1734049 0.05115177 -0.002007143
0.1757984 0.05272624 -0.002057881
0.1781775 0.05432229 -0.00210882
0.180542 0.05593979 -0.002159942
0.1828919 0.05757861 -0.002211231
0.1852268 0.05923862 -0.002262671
0.1875466 0.06091966 -0.002314244
0.1898511 0.0626216 -0.002365935
0.1921402 0.06434431 -0.002417727
0.1944136 0.06608763 -0.002469604
0.1966711 0.06785142 -0.002521549
0.1989126 0.06963553 -0.002573548
0.2011379 0.07143982 -0.002625583
0.2033468 0.07326413 -0.002677639
0.2055392 0.07510832 -0.002729701
0.2077148 0.07697222 -0.002781752
0.2098735 0.0788557 -0.002833778
0.212015 0.08075858 -0.002885763
0.2141394 0.08268072 -0.002937691
0.2162463 0.08462195 -0.002989549
0.2183356 0.08658211 -0.003041319
0.2204071 0.08856105 -0.003092989
0.2224607 0.09055859 -0.003144542
0.2244962 0.09257458 -0.003195965
0.2265135 0.09460884 -0.003247243
0.2285123 0.09666121 -0.003298362
0.2304925 0.09873153 -0.003349306
0.232454 0.1008196 -0.003400063
0.2343966 0.1029253 -0.003450617
0.2363202 0.1050484 -0.003500956
0.2382245 0.1071887 -0.003551066
0.2401095 0.1093462 -0.003600932
0.2419749 0.1115205 -0.003650542
0.2438207 0.1137115 -0.003699881
0.2456467 0.1159191 -0.003748938
0.2474528 0.1181431 -0.003797698
0.2492387 0.1203832 -0.00384615
0.2510045 0.1226393 -0.003894279
0.2527498 0.1249112 -0.003942074
0.2544746 0.1271988 -0.003989522
0.2561788 0.1295017 -0.004036611
0.2578622 0.13182 -0.004083328
0.2595246 0.1341532 -0.004129661
0.261166 0.1365014 -0.004175599
0.2627862 0.1388642 -0.00422113
0.2643851 0.1412415 -0.004266241
0.2659626 0.1436331 -0.004310923
0.2675185 0.1460388 -0.004355162
0.2690527 0.1484584 -0.004398949
0.2705651 0.1508917 -0.004442272
0.2720555 0.1533385 -0.00448512
0.2735239 0.1557986 -0.004527483
0.2749702 0.1582718 -0.00456935
0.2763941 0.1607579 -0.00461071
0.2777957 0.1632567 -0.004651554
0.2791747 0.1657681 -0.004691871
0.2805312 0.1682917 -0.004731652
0.2818649 0.1708274 -0.004770886
0.2831758 0.1733749 -0.004809565
0.2844638 0.1759342 -0.004847678
0.2857287 0.1785049 -0.004885217
0.2869705 0.1810869 -0.004922172
0.288189 0.18368 -0.004958535
0.2893843 0.1862839 -0.004994296
0.2905561 0.1888984 -0.005029448
0.2917044 0.1915233 -0.005063981
0.2928291 0.1941585 -0.005097887
0.2939301 0.1968036 -0.005131159
0.2950073 0.1994586 -0.005163788
0.2960607 0.2021231 -0.005195767
0.2970901 0.2047969 -0.005227088
0.2980955 0.2074799 -0.005257743
0.2990767 0.2101718 -0.005287726
0.3000338 0.2128724 -0.005317029
0.3009666 0.2155815 -0.005345646
0.3018751 0.2182988 -0.00537357
0.3027592 0.2210242 -0.005400793
0.3036188 0.2237574 -0.005427311
0.3044538 0.2264983 -0.005453116
0.3052643 0.2292465 -0.005478203
0.3060501 0.2320018 -0.005502565
0.3068111 0.2347642 -0.005526198
0.3075473 0.2375332 -0.005549095
0.3082587 0.2403087 -0.005571252
0.3089452 0.2430905 -0.005592662
0.3096067 0.2458784 -0.005613323
0.3102432 0.248672 -0.005633227
0.3108546 0.2514713 -0.005652372
0.3114409 0.254276 -0.005670752
0.3120021 0.2570857 -0.005688363
0.312538 0.2599004 -0.005705202
0.3130487 0.2627199 -0.005721263
0.3135341 0.2655437 -0.005736545
0.3139942 0.2683718 -0.005751043
0.314429 0.271204 -0.005764754
0.3148383 0.2740399 -0.005777674
0.3152222 0.2768793 -0.005789801
0.3155807 0.2797221 -0.005801132
0.3159136 0.282568 -0.005811665
0.3162211 0.2854168 -0.005821397
0.316503 0.2882682 -0.005830325
0.3167593 0.291122 -0.005838449
0.3169901 0.2939781 -0.005845765
0.3171953 0.296836 -0.005852273
0.3173749 0.2996957 -0.00585797
0.3175288 0.3025569 -0.005862856
0.3176571 0.3054194 -0.005866929
0.3177598 0.3082828 -0.005870189
0.3178368 0.3111471 -0.005872634
0.3178881 0.314012 -0.005874265
0.3179138 0.3168772 -0.00587508
0.3179138 0.3197426 -0.00587508
0.3178881 0.3226078 -0.005874265
0.3178368 0.3254726 -0.005872634
0.3177598 0.3283369 -0.005870189
0.3176571 0.3312004 -0.005866929
0.3175288 0.3340629 -0.005862856
0.3173749 0.3369241 -0.00585797
0.3171953 0.3397837 -0.005852273
0.3169901 0.3426417 -0.005845765
0.3167593 0.3454977 -0.005838449
0.316503 0.3483516 -0.005830325
0.3162211 0.351203 -0.005821397
0.3159136 0.3540517 -0.005811665
0.3155807 0.3568976 -0.005801132
0.3152222 0.3597404 -0.005789801
0.3148383 0.3625799 -0.005777674
0.314429 0.3654158 -0.005764754
0.3139942 0.3682479 -0.005751043
0.3135341 0.371076 -0.005736545
0.3130487 0.3738999 -0.005721263
0.312538 0.3767193 -0.005705202
0.3120021 0.379534 -0.005688363
0.3114409 0.3823438 -0.005670752
0.3108546 0.3851485 -0.005652372
0.3102432 0.3879477 -0.005633227
0.3096067 0.3907414 -0.005613323
0.3089452 0.3935292 -0.005592662
0.3082587 0.396311 -0.005571252
0.3075473 0.3990866 -0.005549095
0.3068111 0.4018556 -0.005526198
0.3060501 0.4046179 -0.005502565
0.3052643 0.4073733 -0.005478203
0.3044538 0.4101215 -0.005453116
0.3036188 0.4128623 -0.005427311
0.3027592 0.4155956 -0.005400793
0.3018751 0.418321 -0.00537357
0.3009666 0.4210383 -0.005345646
0.3000338 0.4237474 -0.005317029
0.2990767 0.426448 -0.005287726
0.2980955 0.4291399 -0.005257743
0.2970901 0.4318229 -0.005227088
0.2960607 0.4344967 -0.005195767
0.2950073 0.4371612 -0.005163788
0.2939301 0.4398161 -0.005131159
0.2928291 0.4424613 -0.005097887
0.2917044 0.4450964 -0.005063981
0.2905561 0.4477214 -0.005029448
0.2893843 0.4503359 -0.004994296
0.288189 0.4529398 -0.004958535
0.2869705 0.4555328 -0.004922172
0.2857287 0.4581148 -0.004885217
0.2844638 0.4606856 -0.004847678
0.2831758 0.4632448 -0.004809565
0.2818649 0.4657924 -0.004770886
0.2805312 0.4683281 -0.004731652
0.2791747 0.4708517 -0.004691871
0.2777957 0.473363 -0.004651554
0.2763941 0.4758618 -0.00461071
0.2749702 0.4783479 -0.00456935
0.2735239 0.4808212 -0.004527483
0.2720555 0.4832813 -0.00448512
0.2705651 0.4857281 -0.004442272
0.2690527 0.4881614 -0.004398949
0.2675185 0.4905809 -0.004355162
0.2659626 0.4929866 -0.004310923
0.2643851 0.4953782 -0.004266241
0.2627862 0.4977556 -0.00422113
0.261166 0.5001184 -0.004175599
0.2595246 0.5024665 -0.004129661
0.2578622 0.5047998 -0.004083328
0.2561788 0.507118 -0.004036611
0.2544746 0.509421 -0.003989522
0.2527498 0.5117086 -0.003942074
0.2510045 0.5139805 -0.003894279
0.2492387 0.5162366 -0.00384615
0.2474528 0.5184767 -0.003797698
0.2456467 0.5207006 -0.003748938
0.2438207 0.5229082 -0.003699881
0.2419749 0.5250993 -0.003650542
0.2401095 0.5272736 -0.003600932
0.2382245 0.529431 -0.003551066
0.2363202 0.5315714 -0.003500956
0.2343966 0.5336945 -0.003450617
0.232454 0.5358002 -0.003400063
0.2304925 0.5378882 -0.003349306
0.2285123 0.5399586 -0.003298362
0.2265135 0.5420109 -0.003247243
0.2244962 0.5440452 -0.003195965
0.2224607 0.5460612 -0.003144542
0.2204071 0.5480587 -0.003092989
0.2183356 0.5500377 -0.003041319
0.2162463 0.5519978 -0.002989549
0.2141394 0.5539391 -0.002937691
0.212015 0.5558612 -0.002885763
0.2098735 0.5577641 -0.002833778
0.2077148 0.5596475 -0.002781752
0.2055392 0.5615115 -0.002729701
0.2033468 0.5633556 -0.002677639
0.2011379 0.56518 -0.002625583
0.1989126 0.5669842 -0.002573548
0.1966711 0.5687684 -0.002521549
0.1944136 0.5705321 -0.002469604
0.1921402 0.5722755 -0.002417727
0.1898511 0.5739982 -0.002365935
0.1875466 0.5757001 -0.002314244
0.1852268 0.5773812 -0.002262671
0.1828919 0.5790412 -0.002211231
0.180542 0.58068 -0.002159942
0.1781775 0.5822975 -0.00210882
0.1757984 0.5838935 -0.002057881
0.1734049 0.585468 -0.002007143
0.1709973 0.5870208 -0.001956623
0.1685758 0.5885517 -0.001906337
0.1661405 0.5900606 -0.001856302
0.1636916 0.5915474 -0.001806536
0.1612293 0.593012 -0.001757056
0.1587539 0.5944542 -0.001707879
0.1562656 0.595874 -0.001659023
0.1537644 0.5972712 -0.001610505
0.1512507 0.5986456 -0.001562343
0.1487247 0.5999972 -0.001514555
0.1461865 0.6013259 -0.001467157
0.1436363 0.6026316 -0.001420168
0.1410745 0.603914 -0.001373607
0.138501 0.6051732 -0.00132749
0.1359163 0.606409 -0.001281836
0.1333205 0.6076214 -0.001236663
0.1307138 0.6088101 -0.001191988
0.1280964 0.6099751 -0.001147831
0.1254685 0.6111164 -0.00110421
0.1228303 0.6122338 -0.001061143
0.1201822 0.6133271 -0.001018647
0.1175242 0.6143964 -0.0009767429
0.1148566 0.6154416 -0.0009354475
0.1121796 0.6164624 -0.0008947799
0.1094934 0.617459 -0.0008547587
0.1067983 0.618431 -0.0008154025
0.1040945 0.6193786 -0.0007767299
0.1013821 0.6203016 -0.0007387598
0.09866149 0.6211999 -0.0007015109
0.09593281 0.6220734 -0.000665002
0.09319629 0.6229221 -0.0006292519
0.09045215 0.6237459 -0.0005942797
0.08770063 0.6245447 -0.0005601041
0.08494195 0.6253184 -0.0005267442
0.08217634 0.6260671 -0.000494219
0.07940403 0.6267905 -0.0004625474
0.07662523 0.6274887 -0.0004317485
0.07384019 0.6281616 -0.0004018413
0.07104914 0.6288091 -0.0003728451
0.06825229 0.6294312 -0.0003447788
0.0654499 0.6300278 -0.0003176616
0.06264217 0.6305989 -0.0002915126
0.05982936 0.6311443 -0.000266351
0.05701168 0.6316642 -0.0002421959
0.05418938 0.6321583 -0.0002190666
0.05136268 0.6326267 -0.0001969822
0.04853183 0.6330694 -0.0001759619
0.04569705 0.6334862 -0.0001560249
0.04285858 0.6338772 -0.0001371904
0.04001666 0.6342423 -0.0001194776
0.03717153 0.6345815 -0.0001029056
0.03432341 0.6348947 -8.749367e-05
0.03147255 0.6351819 -7.326096e-05
0.02861918 0.6354431 -6.022664e-05
0.02576354 0.6356783 -4.840986e-05
0.02290587 0.6358874 -3.782977e-05
0.02004641 0.6360704 -2.850548e-05
0.01718539 0.6362273 -2.04561e-05
0.01432305 0.6363581 -1.370071e-05
0.01145964 0.6364628 -8.258389e-06
0.008595389 0.6365413 -4.14816e-06
0.005730539 0.6365936 -1.389037e-06
0.00286533 0.6366198 0
0 0.6366198 0

LINES 349 1047
2 0 1
2 1 2
2 2 3
2 3 4
2 4 5
2 5 6
2 6 7
2 7 8
2 8 9
2 9 10
2 10 11
2 11 12
2 12 13
2 13 14
2 14 15
2 15 16
2 16 17
2 17 18
2 18 19
2 19 20
2 20 21
2 21 22
2 22 23
2 23 24
2 24 25
2 25 26
2 26 27
2 27 28
2 28 29
2 29 30
2 30 31
2 31 32
2 32 33
2 33 34
2 34 35
2 35 36
2 36 37
2 37 38
2 38 39
2 39 40
2 40 41
2 41 42
2 42 43
2 43 44
2 44 45
2 45 46
2 46 47
2 47 48
2 48 49
2 49 50
2 50 51
2 51 52
2 52 53
2 53 54
2 54 55
2 55 56
2 56 57
2 57 58
2 58 59
2 59 60
2 60 61
2 61 62
2 62 63
2 63 64
2 64 65
2 65 66
2 66 67
2 67 68
2 68 69
2 69 70
2 70 71
2 71 72
2 72 73
2 73 74
2 74 75
2 75 76
2 76 77
2 77 78
2 78 79
2 79 80
2 80 81
2 81 82
2 82 83
2 83 84
2 84 85
2 85 86
2 86 87
2 87 88
2 88 89
2 89 90
2 90 91
2 91 92
2 92 93
2 93 94
2 94 95
2 95 96
2 96 97
2 97 98
2 98 99
2 99 100
2 100 101
2 101 102
2 102 103
2 103 104
2 104 105
2 105 106
2 106 107
2 107 108
2 108 109
2 109 110
2 110 111
2 111 112
2 112 113
2 113 114
2 114 115
2 115 116
2 116 117
2 117 118
2 118 119
2 119 120
2 120 121
2 121 122
2 122 123
2 123 124
2 124 125
2 125 126
2 126 127
2 127 128
2 128 129
2 129 130
2 130 131
2 131 132
2 132 133
2 133 134
2 134 135
2 135 136
2 136 137
2 137 138
2 138 139
2 139 140
2 140 141
2 141 142
2 142 143
2 143 144
2 144 145
2 145 146
2 146 147
2 147 148
2 148 149
2 149 150
2 150 151
2 151 152
2 152 153
2 153 154
2 154 155
2 155 156
2 156 157
2 157 158
2 158 159
2 159 160
2 160 161
2 161 162
2 162 163
2 163 164
2 164 165
2 165 166
2 166 167
2 167 168
2 168 169
2 169 170
2 170 171
2 171 172
2 172 173
2 173 174
2 174 175
2 175 176
2 176 177
2 177 178
2 178 179
2 179 180
2 180 181
2 181 182
2 182 183
2 183 184
2 184 185
2 185 186
2 186 187
2 187 188
2 188 189
2 189 190
2 190 191
2 191 192
2 192 193
2 193 194
2 194 195
2 195 196
2 196 197
2 197 198
2 198 199
2 199 200
2 200 201
2 201 202
2 202 203
2 203 204
2 204 205
2 205 206
2 206 207
2 207 208
2 208 209
2 209 210
2 210 211
2 211 212
2 212 213
2 213 214
2 214 215
2 215 216
2 216 217
2 217 218
2 218 219
2 219 220
2 220 221
2 221 222
2 222 223
2 223 224
2 224 225
2 225 226
2 226 227
2 227 228
2 228 229
2 229 230
2 230 231
2 231 232
2 232 233
2 233 234
2 234 235
2 235 236
2 236 237
2 237 238
2 238 239
2 239 240
2 240 241
2 241 242
2 242 243
2 243 244
2 244 245
2 245 246
2 246 247
2 247 248
2 248 249
2 249 250
2 250 251
2 251 252
2 252 253
2 253 254
2 254 255
2 255 256
2 256 257
2 257 258
2 258 259
2 259 260
2 260 261
2 261 262
2 262 263
2 263 264
2 264 265
2 265 266
2 266 267
2 267 268
2 268 269
2 269 270
2 270 271
2 271 272
2 272 273
2 273 274
2 274 275
2 275 276
2 276 277
2 277 278
2 278 279
2 279 280
2 280 281
2 281 282
2 282 283
2 283 284
2 284 285
2 285 286
2 286 287
2 287 288
2 288 289
2 289 290
2 290 291
2 291 292
2 292 293
2 293 294
2 294 295
2 295 296
2 296 297
2 297 298
2 298 299
2 299 300
2 300 301
2 301 302
2 302 303
2 303 304
2 304 305
2 305 306
2 306 307
2 307 308
2 308 309
2 309 310
2 310 311
2 311 312
2 312 313
2 313 314
2 314 315
2 315 316
2 316 317
2 317 318
2 318 319
2 319 320
2 320 321
2 321 322
2 322 323
2 323 324
2 324 325
2 325 326
2 326 327
2 327 328
2 328 329
2 329 330
2 330 331
2 331 332
2 332 333
2 333 334
2 334 335
2 335 336
2 336 337
2 337 338
2 338 339
2 339 340
2 340 341
2 341 342
2 342 343
2 343 344
2 344 345
2 345 346
2 346 347
2 347 348
2 348 349


POINT_DATA 350
SCALARS a FLOAT 1
LOOKUP_TABLE default
0.0005894628
0.0005894628
0.0005894628
0.0005894628
0.0005894628
0.0005894628
0.0005894628
0.0005894628
0.0005894628
0.0005894628
0.0005894628
0.0005894628
0.0005894628
0.0005894628
0.0005894628
0.0005894628
0.0005894628
0.0005894628
0.0005894628
0.0005894628
0.0005894628
0.0005894628
0.0005894628
0.0005894628
0.0005894628
0.0005894628
0.0005894628
0.0005894628
0.0005894628
0.0005894628
0.0005894628
0.0005894628
0.0005894628
0.0005894628
0.0005894628
0.0005894628
0.0005894628
0.0005894628
0.0005894628
0.0005894628
0.0005894628
0.0005894628
0.0005894628
0.0005894628
0.0005894628
0.0005894628
0.0005894628
0.0005894628
0.0005894628
0.0005894628
0.0005894628
0.0005894628
0.0005894628
0.0005894628
0.0005894628
0.0005894628
0.0005894628
0.0005894628
0.0005894628
0.0005894628
0.0005894628
0.0005894628
0.0005894628
0.0005894628
0.0005894628
0.0005894628
0.0005894628
0.0005894628
0.0005894628
0.0005894628
0.0005894628
0.0005894628
0.0005894628
0.0005894628
0.0005894628
0.0005894628
0.0005894628
0.0005894628
0.0005894628
0.0005894628
0.0005894628
0.0005894628
0.0005894628
0.0005894628
0.0005894628
0.0005894628
0.0005894628
0.0005894628
0.0005894628
0.0005894628
0.0005894628
0.0005894628
0.0005894628
0.0005894628
0.0005894628
0.0005894628
0.0005894628
0.0005894628
0.0005894628
0.0005894628
0.0005894628
0.0005894628
0.0005894628
0.0005894628
0.0005894628
0.0005894628
0.0005894628
0.0005894628
0.0005894628
0.0005894628
0.0005894628
0.0005894628
0.0005894628
0.0005894628
0.0005894628
0.0005894628
0.0005894628
0.0005894628
0.0005894628
0.0005894628
0.0005894628
0.0005894628
0.0005894628
0.0005894628
0.0005894628
0.0005894628
0.0005894628
0.0005894628
0.0005894628
0.0005894628
0.0005894628
0.0005894628
0.0005894628
0.0005894628
0.0005894628
0.0005894628
0.0005894628
0.0005894628
0.0005894628
0.0005894628
0.0005894628
0.0005894628
0.0005894628
0.0005894628
0.0005894628
0.0005894628
0.0005894628
0.0005894628
0.0005894628
0.0005894628
0.0005894628
0.0005894628
0.0005894628
0.0005894628
0.0005894628
0.0005894628
0.0005894628
0.0005894628
0.0005894628
0.0005894628
0.0005894628
0.0005894628
0.0005894628
0.0005894628
0.0005894628
0.0005894628
0.0005894628
0.0005894628
0.0005894628
0.0005894628
0.0005894628
0.0005894628
0.0005894628
0.0005894628
0.0005894628
0.0005894628
0.0005894628
0.0005894628
0.0005894628
0.0005894628
0.0005894628
0.0005894628
0.0005894628
0.0005894628
0.0005894628
0.0005894628
0.0005894628
0.0005894628
0.0005894628
0.0005894628
0.0005894628
0.0005894628
0.0005894628
0.0005894628
0.0005894628
0.0005894628
0.0005894628
0.0005894628
0.0005894628
0.0005894628
0.0005894628
0.0005894628
0.0005894628
0.0005894628
0.0005894628
0.0005894628
0.0005894628
0.0005894628
0.0005894628
0.0005894628
0.0005894628
0.0005894628
0.0005894628
0.0005894628
0.0005894628
0.0005894628
0.0005894628
0.0005894628
0.0005894628
0.0005894628
0.0005894628
0.0005894628
0.0005894628
0.0005894628
0.0005894628
0.0005894628
0.0005894628
0.0005894628
0.0005894628
0.0005894628
0.0005894628
0.0005894628
0.0005894628
0.0005894628
0.0005894628
0.0005894628
0.0005894628
0.0005894628
0.0005894628
0.0005894628
0.0005894628
0.0005894628
0.0005894628
0.0005894628
0.0005894628
0.0005894628
0.0005894628
0.0005894628
0.0005894628
0.0005894628
0.0005894628
0.0005894628
0.0005894628
0.0005894628
0.0005894628
0.0005894628
0.0005894628
0.0005894628
0.0005894628
0.0005894628
0.0005894628
0.0005894628
0.0005894628
0.0005894628
0.0005894628
0.0005894628
0.0005894628
0.0005894628
0.0005894628
0.0005894628
0.0005894628
0.0005894628
0.0005894628
0.0005894628
0.0005894628
0.0005894628
0.0005894628
0.0005894628
0.0005894628
0.0005894628
0.0005894628
0.0005894628
0.0005894628
0.0005894628
0.0005894628
0.0005894628
0.0005894628
0.0005894628
0.0005894628
0.0005894628
0.0005894628
0.0005894628
0.0005894628
0.0005894628
0.0005894628
0.0005894628
0.0005894628
0.0005894628
0.0005894628
0.0005894628
0.0005894628
0.0005894628
0.0005894628
0.0005894628
0.0005894628
0.0005894628
0.0005894628
0.0005894628
0.0005894628
0.0005894628
0.0005894628
0.0005894628
0.0005894628
0.0005894628
0.0005894628
0.0005894628
0.0005894628
0.0005894628
0.0005894628
0.0005894628
0.0005894628
0.0005894628
0.0005894628
0.0005894628
0.0005894628
0.0005894628
0.0005894628
0.0005894628
0.0005894628
0.0005894628
0.0005894628
0.0005894628
0.0005894628
0.0005894628
0.0005894628
0.0005894628
0.0005894628
0.0005894628
0.0005894628
0.0005894628
0.0005894628
0.0005894628
0.0005894628
0.0005894628
0.0005894628
0.0005894628
0.0005894628
0.0005894628
0.0005894628
0.0005894628


SCALARS b FLOAT 1
LOOKUP_TABLE default
0.02357851
0.02357851
0.02357851
0.02357851
0.02357851
0.02357851
0.02357851
0.02357851
0.02357851
0.02357851
0.02357851
0.02357851
0.02357851
0.02357851
0.02357851
0.02357851
0.02357851
0.02357851
0.02357851
0.02357851
0.02357851
0.02357851
0.02357851
0.02357851
0.02357851
0.02357851
0.02357851
0.02357851
0.02357851
0.02357851
0.02357851
0.02357851
0.02357851
0.02357851
0.02357851
0.02357851
0.02357851
0.02357851
0.02357851
0.02357851
0.02357851
0.02357851
0.02357851
0.02357851
0.02357851
0.02357851
0.02357851
0.02357851
0.02357851
0.02357851
0.02357851
0.02357851
0.02357851
0.02357851
0.02357851
0.02357851
0.02357851
0.02357851
0.02357851
0.02357851
0.02357851
0.02357851
0.02357851
0.02357851
0.02357851
0.02357851
0.02357851
0.02357851
0.02357851
0.02357851
0.02357851
0.02357851
0.02357851
0.02357851
0.02357851
0.02357851
0.02357851
0.02357851
0.02357851
0.02357851
0.02357851
0.02357851
0.02357851
0.02357851
0.02357851
0.02357851
0.02357851
0.02357851
0.02357851
0.02357851
0.02357851
0.02357851
0.02357851
0.02357851
0.02357851
0.02357851
0.02357851
0.02357851
0.02357851
0.02357851
0.02357851
0.02357851
0.02357851
0.02357851
0.02357851
0.02357851
0.02357851
0.02357851
0.02357851
0.02357851
0.02357851
0.02357851
0.02357851
0.02357851
0.02357851
0.02357851
0.02357851
0.02357851
0.02357851
0.02357851
0.02357851
0.02357851
0.02357851
0.02357851
0.02357851
0.02357851
0.02357851
0.02357851
0.02357851
0.02357851
0.02357851
0.02357851
0.02357851
0.02357851
0.02357851
0.02357851
0.02357851
0.02357851
0.02357851
0.02357851
0.02357851
0.02357851
0.02357851
0.02357851
0.02357851
0.02357851
0.02357851
0.02357851
0.02357851
0.02357851
0.02357851
0.02357851
0.02357851
0.02357851
0.02357851
0.02357851
0.02357851
0.02357851
0.02357851
0.02357851
0.02357851
0.02357851
0.02357851
0.02357851
0.02357851
0.02357851
0.02357851
0.02357851
0.02357851
0.02357851
0.02357851
0.02357851
0.02357851
0.02357851
0.02357851
0.02357851
0.02357851
0.02357851
0.02357851
0.02357851
0.02357851
0.02357851
0.02357851
0.02357851
0.02357851
0.02357851
0.02357851
0.02357851
0.02357851
0.02357851
0.02357851
0.02357851
0.02357851
0.02357851
0.02357851
0.02357851
0.02357851
0.02357851
0.02357851
0.02357851
0.02357851
0.02357851
0.02357851
0.02357851
0.02357851
0.02357851
0.02357851
0.02357851
0.02357851
0.02357851
0.02357851
0.02357851
0.02357851
0.02357851
0.02357851
0.02357851
0.02357851
0.02357851
0.02357851
0.02357851
0.02357851
0.02357851
0.02357851
0.02357851
0.02357851
0.02357851
0.02357851
0.02357851
0.02357851
0.02357851
0.02357851
0.02357851
0.02357851
0.02357851
0.02357851
0.02357851
0.02357851
0.02357851
0.02357851
0.02357851
0.02357851
0.02357851
0.02357851
0.02357851
0.02357851
0.02357851
0.02357851
0.02357851
0.02357851
0.02357851
0.02357851
0.02357851
0.02357851
0.02357851
0.02357851
0.02357851
0.02357851
0.02357851
0.02357851
0.02357851
0.02357851
0.02357851
0.02357851
0.02357851
0.02357851
0.02357851
0.02357851
0.02357851
0.02357851
0.02357851
0.02357851
0.02357851
0.02357851
0.02357851
0.02357851
0.02357851
0.02357851
0.02357851
0.02357851
0.02357851
0.02357851
0.02357851
0.02357851
0.02357851
0.02357851
0.02357851
0.02357851
0.02357851
0.02357851
0.02357851
0.02357851
0.02357851
0.02357851
0.02357851
0.02357851
0.02357851
0.02357851
0.02357851
0.02357851
0.02357851
0.02357851
0.02357851
0.02357851
0.02357851
0.02357851
0.02357851
0.02357851
0.02357851
0.02357851
0.02357851
0.02357851
0.02357851
0.02357851
0.02357851
0.02357851
0.02357851
0.02357851
0.02357851
0.02357851
0.02357851
0.02357851
0.02357851
0.02357851
0.02357851
0.02357851
0.02357851
0.02357851
0.02357851
0.02357851
0.02357851
0.02357851
0.02357851
0.02357851
0.02357851
0.02357851
0.02357851
0.02357851
0.02357851
0.02357851
0.02357851
0.02357851
0.02357851
0.02357851
0.02357851
0.02357851
0.02357851
0.02357851
0.02357851
0.02357851
0.02357851


VECTORS d1 FLOAT
0 0.9985742 -0.05338169
-0.009147837 0.9985701 -0.05266958
-0.01829318 0.9984818 -0.05195596
-0.02743527 0.9983094 -0.0512409
-0.03657334 0.9980529 -0.0505245
-0.04570661 0.9977125 -0.04980682
-0.05483433 0.9972881 -0.04908796
-0.06395574 0.9967799 -0.048368
-0.07307007 0.996188 -0.04764701
-0.08217656 0.9955125 -0.04692508
-0.09127446 0.9947534 -0.0462023
-0.100363 0.9939109 -0.04547874
-0.1094414 0.9929852 -0.04475448
-0.118509 0.9919763 -0.04402961
-0.127565 0.9908844 -0.04330422
-0.1366086 0.9897096 -0.04257837
-0.1456391 0.9884521 -0.04185216
-0.1546558 0.9871121 -0.04112566
-0.1636579 0.9856896 -0.04039895
-0.1726446 0.9841849 -0.03967213
-0.1816153 0.9825982 -0.03894525
-0.1905691 0.9809295 -0.03821842
-0.1995054 0.9791792 -0.0374917
-0.2084235 0.9773474 -0.03676518
-0.2173225 0.9754343 -0.03603894
-0.2262018 0.9734402 -0.03531306
-0.2350606 0.9713651 -0.03458762
-0.2438983 0.9692094 -0.03386269
-0.2527141 0.9669733 -0.03313836
-0.2615072 0.9646571 -0.03241471
-0.270277 0.9622609 -0.03169181
-0.2790228 0.9597849 -0.03096974
-0.2877439 0.9572296 -0.03024859
-0.2964394 0.9545951 -0.02952843
-0.3051089 0.9518816 -0.02880934
-0.3137514 0.9490895 -0.02809139
-0.3223665 0.946219 -0.02737466
-0.3309532 0.9432705 -0.02665924
-0.3395111 0.9402442 -0.02594519
-0.3480393 0.9371403 -0.0252326
-0.3565372 0.9339593 -0.02452154
-0.3650041 0.9307013 -0.02381208
-0.3734394 0.9273668 -0.02310431
-0.3818423 0.923956 -0.02239829
-0.3902122 0.9204693 -0.02169411
-0.3985485 0.916907 -0.02099183
-0.4068503 0.9132694 -0.02029153
-0.4151172 0.9095569 -0.01959329
-0.4233484 0.9057698 -0.01889718
-0.4315434 0.9019085 -0.01820328
-0.4397013 0.8979733 -0.01751164
-0.4478217 0.8939646 -0.01682236
-0.4559037 0.8898828 -0.0161355
-0.4639469 0.8857282 -0.01545113
-0.4719506 0.8815013 -0.01476933
-0.4799142 0.8772023 -0.01409016
-0.4878369 0.8728317 -0.0134137
-0.4957182 0.86839 -0.01274001
-0.5035576 0.8638774 -0.01206917
-0.5113542 0.8592944 -0.01140125
-0.5191077 0.8546414 -0.01073632
-0.5268172 0.8499189 -0.01007444
-0.5344823 0.8451272 -0.009415684
-0.5421024 0.8402668 -0.008760119
-0.5496768 0.8353381 -0.008107813
-0.557205 0.8303415 -0.007458833
-0.5646863 0.8252775 -0.006813245
-0.5721202 0.8201466 -0.006171117
-0.5795061 0.8149491 -0.005532514
-0.5868435 0.8096856 -0.0048975
-0.5941317 0.8043564 -0.004266142
-0.6013703 0.7989622 -0.003638504
-0.6085586 0.7935032 -0.003014649
-0.6156961 0.7879801 -0.002394641
-0.6227822 0.7823932 -0.001778543
-0.6298164 0.7767432 -0.001166418
-0.6367982 0.7710303 -0.0005583273
-0.6437269 0.7652553 4.566684e-05
-0.6506022 0.7594184 0.0006455035
-0.6574234 0.7535204 0.001241122
-0.66419 0.7475615 0.001832463
-0.6709016 0.7415425 0.002419465
-0.6775575 0.7354637 0.003002071
-0.6841574 0.7293256 0.003580221
-0.6907006 0.7231289 0.004153858
-0.6971867 0.7168741 0.004722924
-0.7036152 0.7105616 0.005287362
-0.7099855 0.704192 0.005847115
-0.7162974 0.6977658 0.006402128
-0.7225501 0.6912836 0.006952345
-0.7287433 0.684746 0.007497711
-0.7348765 0.6781534 0.008038173
-0.7409492 0.6715064 0.008573675
-0.7469609 0.6648056 0.009104165
-0.7529113 0.6580515 0.00962959
-0.7587998 0.6512448 0.0101499
-0.7646261 0.6443859 0.01066504
-0.7703896 0.6374755 0.01117496
-0.77609 0.630514 0.01167961
-0.7817267 0.6235022 0.01217894
-0.7872995 0.6164405 0.0126729
-0.7928078 0.6093296 0.01316144
-0.7982513 0.60217 0.01364452
-0.8036295 0.5949624 0.01412209
-0.808942 0.5877073 0.01459409
-0.8141885 0.5804053 0.01506049
-0.8193685 0.573057 0.01552123
-0.8244817 0.565663 0.01597628
-0.8295277 0.558224 0.01642558
-0.834506 0.5507405 0.0168691
-0.8394164 0.5432132 0.01730679
-0.8442584 0.5356426 0.0177386
-0.8490318 0.5280294 0.01816451
-0.8537361 0.5203742 0.01858445
-0.8583709 0.5126777 0.0189984
-0.8629361 0.5049404 0.01940631
-0.8674311 0.4971629 0.01980814
-0.8718557 0.489346 0.02020386
-0.8762095 0.4814902 0.02059342
-0.8804923 0.4735962 0.02097679
-0.8847036 0.4656646 0.02135393
-0.8888433 0.4576961 0.02172481
-0.8929109 0.4496912 0.02208938
-0.8969062 0.4416507 0.02244761
-0.9008289 0.4335752 0.02279948
-0.9046787 0.4254653 0.02314493
-0.9084553 0.4173218 0.02348395
-0.9121585 0.4091451 0.02381649
-0.9157878 0.4009361 0.02414253
-0.9193432 0.3926953 0.02446204
-0.9228244 0.3844235 0.02477498
-0.9262309 0.3761212 0.02508132
-0.9295627 0.3677892 0.02538103
-0.9328195 0.3594281 0.02567409
-0.936001 0.3510386 0.02596047
-0.9391071 0.3426213 0.02624013
-0.9421374 0.334177 0.02651306
-0.9450917 0.3257062 0.02677922
-0.9479699 0.3172098 0.0270386
-0.9507717 0.3086882 0.02729116
-0.9534969 0.3001423 0.02753688
-0.9561453 0.2915727 0.02777574
-0.9587168 0.2829801 0.02800772
-0.961211 0.2743651 0.02823278
-0.963628 0.2657285 0.02845092
-0.9659674 0.257071 0.02866211
-0.9682291 0.2483931 0.02886633
-0.9704129 0.2396957 0.02906356
-0.9725188 0.2309794 0.02925378
-0.9745464 0.2222448 0.02943698
-0.9764957 0.2134928 0.02961313
-0.9783666 0.2047239 0.02978222
-0.9801588 0.1959389 0.02994424
-0.9818723 0.1871384 0.03009916
-0.983507 0.1783232 0.03024698
-0.9850626 0.1694939 0.03038767
-0.9865392 0.1606513 0.03052123
-0.9879366 0.1517961 0.03064765
-0.9892546 0.1429288 0.0307669
-0.9904933 0.1340504 0.03087899
-0.9916525 0.1251613 0.03098389
-0.9927321 0.1162625 0.0310816
-0.993732 0.1073544 0.03117211
-0.9946522 0.09843794 0.03125541
-0.9954927 0.08951371 0.0313315
-0.9962532 0.08058243 0.03140036
-0.9969339 0.0716448 0.03146199
-0.9975346 0.06270154 0.03151638
-0.9980553 0.05375334 0.03156353
-0.9984959 0.04480092 0.03160343
-0.9988565 0.03584497 0.03163609
-0.999137 0.02688619 0.03166149
-0.9993373 0.0179253 0.03167963
-0.9994575 0.008963005 0.03169052
-0.9994976 1.935258e-14 0.03169415
-0.9994575 -0.008963005 0.03169052
-0.9993373 -0.0179253 0.03167963
-0.999137 -0.02688619 0.03166149
-0.9988565 -0.03584497 0.03163609
-0.9984959 -0.04480092 0.03160343
-0.9980553 -0.05375334 0.03156353
-0.9975346 -0.06270154 0.03151638
-0.9969339 -0.0716448 0.03146199
-0.9962532 -0.08058243 0.03140036
-0.9954927 -0.08951371 0.0313315
-0.9946522 -0.09843794 0.03125541
-0.993732 -0.1073544 0.03117211
-0.9927321 -0.1162625 0.0310816
-0.9916525 -0.1251613 0.03098389
-0.9904933 -0.1340504 0.03087899
-0.9892546 -0.1429288 0.0307669
-0.9879366 -0.1517961 0.03064765
-0.9865392 -0.1606513 0.03052123
-0.9850626 -0.1694939 0.03038767
-0.983507 -0.1783232 0.03024698
-0.9818723 -0.1871384 0.03009916
-0.9801588 -0.1959389 0.02994424
-0.9783666 -0.2047239 0.02978222