# vtk DataFile Version 2.0
Written badly by Kevin Korner
ASCII
DATASET POLYDATA
POINTS 350 FLOAT
0 0 0
0.00286533 0 0
0.005730513 2.457537e-05 1.534594e-05
0.008595256 7.382292e-05 4.584247e-05
0.01145927 0.0001478343 9.129249e-05
0.01432226 0.0002466958 0.0001514972
0.01718394 0.000370489 0.000226256
0.02004401 0.0005192898 0.0003153671
0.0229022 0.0006931695 0.0004186268
0.0257582 0.0008921939 0.0005358303
0.02861174 0.001116424 0.0006667714
0.03146253 0.001365916 0.0008112426
0.03431028 0.001640721 0.0009690352
0.03715472 0.001940885 0.001139939
0.03999555 0.002266449 0.001323744
0.0428325 0.002617449 0.001520238
0.0456653 0.002993918 0.001729209
0.04849365 0.003395881 0.001950442
0.0513173 0.003823361 0.002183724
0.05413595 0.004276375 0.002428839
0.05694934 0.004754936 0.002685572
0.0597572 0.005259052 0.002953707
0.06255926 0.005788726 0.003233027
0.06535525 0.006343958 0.003523315
0.06814491 0.006924743 0.003824354
0.07092797 0.00753107 0.004135925
0.07370416 0.008162925 0.004457812
0.07647324 0.00882029 0.004789795
0.07923493 0.009503143 0.005131656
0.08198899 0.01021146 0.005483177
0.08473516 0.0109452 0.005844139
0.08747318 0.01170434 0.006214325
0.09020282 0.01248883 0.006593516
0.09292381 0.01329864 0.006981493
0.09563591 0.01413371 0.007378039
0.09833889 0.014994 0.007782937
0.1010325 0.01587945 0.008195968
0.1037165 0.01679 0.008616917
0.1063906 0.01772559 0.009045566
0.1090547 0.01868615 0.009481699
0.1117084 0.01967162 0.009925102
0.1143516 0.02068192 0.01037556
0.1169841 0.02171698 0.01083285
0.1196055 0.02277672 0.01129677
0.1222157 0.02386105 0.01176711
0.1248144 0.02496988 0.01224364
0.1274015 0.02610314 0.01272616
0.1299767 0.02726072 0.01321446
0.1325398 0.02844253 0.01370833
0.1350906 0.02964848 0.01420755
0.1376289 0.03087845 0.01471192
0.1401545 0.03213235 0.01522124
0.1426671 0.03341006 0.0157353
0.1451666 0.03471148 0.01625388
0.1476528 0.0360365 0.01677679
0.1501254 0.03738499 0.01730383
0.1525843 0.03875684 0.01783478
0.1550293 0.04015193 0.01836946
0.1574602 0.04157013 0.01890766
0.1598767 0.04301132 0.01944918
0.1622788 0.04447536 0.01999382
0.1646663 0.04596213 0.0205414
0.1670388 0.0474715 0.0210917
0.1693964 0.04900332 0.02164455
0.1717387 0.05055746 0.02219975
0.1740656 0.05213378 0.0227571
0.176377 0.05373213 0.02331642
0.1786727 0.05535238 0.02387752
0.1809525 0.05699436 0.02444021
0.1832162 0.05865794 0.0250043
0.1854637 0.06034297 0.02556962
0.1876948 0.06204928 0.02613598
0.1899094 0.06377673 0.0267032
0.1921072 0.06552516 0.0272711
0.1942882 0.06729441 0.0278395
0.1964522 0.06908431 0.02840823
0.1985991 0.07089472 0.0289771
0.2007286 0.07272546 0.02954595
0.2028407 0.07457636 0.03011461
0.2049352 0.07644727 0.0306829
0.2070119 0.07833801 0.03125065
0.2090708 0.08024841 0.0318177
0.2111117 0.08217829 0.03238389
0.2131344 0.0841275 0.03294904
0.2151388 0.08609585 0.033513
0.2171248 0.08808316 0.0340756
0.2190922 0.09008926 0.03463669
0.221041 0.09211397 0.03519611
0.222971 0.09415711 0.0357537
0.224882 0.0962185 0.0363093
0.226774 0.09829795 0.03686278
0.2286468 0.1003953 0.03741397
0.2305004 0.1025103 0.03796272
0.2323345 0.1046428 0.0385089
0.2341492 0.1067927 0.03905234
0.2359442 0.1089597 0.03959292
0.2377194 0.1111436 0.04013048
0.2394749 0.1133443 0.04066489
0.2412103 0.1155616 0.041196
0.2429257 0.1177952 0.04172369
0.244621 0.120045 0.0422478
0.246296 0.1223107 0.04276822
0.2479506 0.1245923 0.04328481
0.2495847 0.1268894 0.04379744
0.2511983 0.1292019 0.04430597
0.2527913 0.1315297 0.04481029
0.2543635 0.1338724 0.04531027
0.2559149 0.1362299 0.04580579
0.2574453 0.138602 0.04629671
0.2589547 0.1409885 0.04678293
0.260443 0.1433892 0.04726433
0.2619102 0.1458038 0.04774079
0.263356 0.1482323 0.04821219
0.2647805 0.1506743 0.04867842
0.2661836 0.1531297 0.04913938
0.2675652 0.1555983 0.04959494
0.2689252 0.1580798 0.05004502
0.2702635 0.1605741 0.05048949
0.2715801 0.1630809 0.05092826
0.2728749 0.1656001 0.05136122
0.2741478 0.1681314 0.05178828
0.2753988 0.1706746 0.05220932
0.2766277 0.1732295 0.05262427
0.2778345 0.1757959 0.05303302
0.2790193 0.1783737 0.05343549
0.2801818 0.1809624 0.05383157
0.281322 0.1835621 0.05422117
0.2824399 0.1861724 0.05460422
0.2835354 0.1887932 0.05498063
0.2846084 0.1914241 0.0553503
0.2856589 0.1940651 0.05571317
0.2866869 0.1967159 0.05606914
0.2876923 0.1993763 0.05641814
0.288675 0.202046 0.05676009
0.2896349 0.2047249 0.05709492
0.2905721 0.2074127 0.05742256
0.2914865 0.2101093 0.05774292
0.292378 0.2128144 0.05805594
0.2932466 0.2155277 0.05836156
0.2940922 0.2182491 0.0586597
0.2949149 0.2209784 0.05895031
0.2957145 0.2237153 0.05923331
0.296491 0.2264596 0.05950865
0.2972444 0.2292111 0.05977627
0.2979746 0.2319697 0.06003612
0.2986817 0.2347349 0.06028812
0.2993655 0.2375067 0.06053225
0.300026 0.2402849 0.06076843
0.3006633 0.2430691 0.06099661
0.3012772 0.2458592 0.06121677
0.3018677 0.248655 0.06142883
0.3024348 0.2514562 0.06163276
0.3029786 0.2542627 0.06182853
0.3034989 0.2570741 0.06201607
0.3039957 0.2598904 0.06219536
0.304469 0.2627111 0.06236636
0.3049188 0.2655363 0.06252903
0.305345 0.2683655 0.06268334
0.3057477 0.2711987 0.06282926
0.3061268 0.2740355 0.06296675
0.3064823 0.2768757 0.06309578
0.3068142 0.2797192 0.06321634
0.3071224 0.2825657 0.06332839
0.307407 0.285415 0.06343191
0.3076679 0.2882668 0.06352687
0.3079051 0.291121 0.06361327
0.3081187 0.2939773 0.06369108
0.3083085 0.2968355 0.06376029
0.3084746 0.2996954 0.06382087
0.3086171 0.3025567 0.06387283
0.3087358 0.3054192 0.06391614
0.3088307 0.3082828 0.0639508
0.3089019 0.3111471 0.0639768
0.3089494 0.314012 0.06399414
0.3089732 0.3168772 0.06400281
0.3089732 0.3197426 0.06400281
0.3089494 0.3226078 0.06399414
0.3089019 0.3254727 0.0639768
0.3088307 0.328337 0.0639508
0.3087358 0.3312005 0.06391614
0.3086171 0.3340631 0.06387283
0.3084746 0.3369244 0.06382087
0.3083085 0.3397843 0.06376029
0.3081187 0.3426424 0.06369108
0.3079051 0.3454987 0.06361327
0.3076679 0.3483529 0.06352687
0.307407 0.3512048 0.06343191
0.3071224 0.3540541 0.06332839
0.3068142 0.3569006 0.06321634
0.3064823 0.359744 0.06309578
0.3061268 0.3625843 0.06296675
0.3057477 0.3654211 0.06282926
0.305345 0.3682543 0.06268334
0.3049188 0.3710835 0.06252903
0.304469 0.3739086 0.06236636
0.3039957 0.3767294 0.06219536
0.3034989 0.3795456 0.06201607
0.3029786 0.3823571 0.06182853
0.3024348 0.3851635 0.06163276
0.3018677 0.3879648 0.06142883
0.3012772 0.3907606 0.06121677
0.3006633 0.3935507 0.06099661
0.300026 0.3963349 0.06076843
0.2993655 0.399113 0.06053225
0.2986817 0.4018849 0.06028812
0.2979746 0.4046501 0.06003612
0.2972444 0.4074086 0.05977627
0.296491 0.4101601 0.05950865
0.2957145 0.4129045 0.05923331
0.2949149 0.4156414 0.05895031
0.2940922 0.4183707 0.0586597
0.2932466 0.4210921 0.05836156
0.292378 0.4238054 0.05805594
0.2914865 0.4265105 0.05774292
0.2905721 0.429207 0.05742256
0.2896349 0.4318949 0.05709492
0.288675 0.4345738 0.05676009
0.2876923 0.4372435 0.05641814
0.2866869 0.4399039 0.05606914
0.2856589 0.4425546 0.05571317
0.2846084 0.4451956 0.0553503
0.2835354 0.4478266 0.05498063
0.2824399 0.4504474 0.05460422
0.281322 0.4530577 0.05422117
0.2801818 0.4556573 0.05383157
0.2790193 0.4582461 0.05343549
0.2778345 0.4608238 0.05303302
0.2766277 0.4633903 0.05262427
0.2753988 0.4659452 0.05220932
0.2741478 0.4684884 0.05178828
0.2728749 0.4710197 0.05136122
0.2715801 0.4735388 0.05092826
0.2702635 0.4760457 0.05048949
0.2689252 0.47854 0.05004502
0.2675652 0.4810215 0.04959494
0.2661836 0.4834901 0.04913938
0.2647805 0.4859455 0.04867842
0.263356 0.4883875 0.04821219
0.2619102 0.4908159 0.04774079
0.260443 0.4932306 0.04726433
0.2589547 0.4956313 0.04678293
0.2574453 0.4980178 0.04629671
0.2559149 0.5003899 0.04580579
0.2543635 0.5027474 0.04531027
0.2527913 0.5050901 0.04481029
0.2511983 0.5074178 0.04430597
0.2495847 0.5097304 0.04379744
0.2479506 0.5120275 0.04328481
0.246296 0.514309 0.04276822
0.244621 0.5165748 0.0422478
0.2429257 0.5188246 0.04172369
0.2412103 0.5210582 0.041196
0.2394749 0.5232755 0.04066489
0.2377194 0.5254762 0.04013048
0.2359442 0.5276601 0.03959292
0.2341492 0.5298271 0.03905234
0.2323345 0.5319769 0.0385089
0.2305004 0.5341095 0.03796272
0.2286468 0.5362245 0.03741397
0.226774 0.5383218 0.03686278
0.224882 0.5404013 0.0363093
0.222971 0.5424627 0.0357537
0.221041 0.5445058 0.03519611
0.2190922 0.5465305 0.03463669
0.2171248 0.5485366 0.0340756
0.2151388 0.5505239 0.033513
0.2131344 0.5524923 0.03294904
0.2111117 0.5544415 0.03238389
0.2090708 0.5563714 0.0318177
0.2070119 0.5582818 0.03125065
0.2049352 0.5601725 0.0306829
0.2028407 0.5620434 0.03011461
0.2007286 0.5638943 0.02954595
0.1985991 0.5657251 0.0289771
0.1964522 0.5675355 0.02840823
0.1942882 0.5693254 0.0278395
0.1921072 0.5710946 0.0272711
0.1899094 0.572843 0.0267032
0.1876948 0.5745705 0.02613598
0.1854637 0.5762768 0.02556962
0.1832162 0.5779618 0.0250043
0.1809525 0.5796254 0.02444021
0.1786727 0.5812674 0.02387752
0.176377 0.5828876 0.02331642
0.1740656 0.584486 0.0227571
0.1717387 0.5860623 0.02219975
0.1693964 0.5876165 0.02164455
0.1670388 0.5891483 0.0210917
0.1646663 0.5906576 0.0205414
0.1622788 0.5921444 0.01999382
0.1598767 0.5936085 0.01944918
0.1574602 0.5950496 0.01890766
0.1550293 0.5964678 0.01836946
0.1525843 0.5978629 0.01783478
0.1501254 0.5992348 0.01730383
0.1476528 0.6005833 0.01677679
0.1451666 0.6019083 0.01625388
0.1426671 0.6032097 0.0157353
0.1401545 0.6044874 0.01522124
0.1376289 0.6057413 0.01471192
0.1350906 0.6069713 0.01420755
0.1325398 0.6081772 0.01370833
0.1299767 0.6093591 0.01321446
0.1274015 0.6105166 0.01272616
0.1248144 0.6116499 0.01224364
0.1222157 0.6127587 0.01176711
0.1196055 0.6138431 0.01129677
0.1169841 0.6149028 0.01083285
0.1143516 0.6159379 0.01037556
0.1117084 0.6169482 0.009925102
0.1090547 0.6179336 0.009481699
0.1063906 0.6188942 0.009045566
0.1037165 0.6198298 0.008616917
0.1010325 0.6207403 0.008195968
0.09833889 0.6216258 0.007782937
0.09563591 0.6224861 0.007378039
0.09292381 0.6233211 0.006981493
0.09020282 0.6241309 0.006593516
0.08747318 0.6249154 0.006214325
0.08473516 0.6256746 0.005844139
0.08198899 0.6264083 0.005483177
0.07923493 0.6271166 0.005131656
0.07647324 0.6277995 0.004789795
0.07370416 0.6284568 0.004457812
0.07092797 0.6290887 0.004135925
0.06814491 0.629695 0.003824354
0.06535525 0.6302758 0.003523315
0.06255926 0.630831 0.003233027
0.0597572 0.6313607 0.002953707
0.05694934 0.6318648 0.002685572
0.05413595 0.6323434 0.002428839
0.0513173 0.6327964 0.002183724
0.04849365 0.6332239 0.001950442
0.0456653 0.6336259 0.001729209
0.0428325 0.6340023 0.001520238
0.03999555 0.6343533 0.001323744
0.03715472 0.6346789 0.001139939
0.03431028 0.6349791 0.0009690352
0.03146253 0.6352539 0.0008112426
0.02861174 0.6355033 0.0006667714
0.0257582 0.6357276 0.0005358303
0.0229022 0.6359266 0.0004186268
0.02004401 0.6361005 0.0003153671
0.01718394 0.6362493 0.000226256
0.01432226 0.6363731 0.0001514972
0.01145927 0.6364719 9.129249e-05
0.008595256 0.6365459 4.584247e-05
0.005730513 0.6365952 1.534594e-05
0.00286533 0.6366198 0
0 0.6366198 0

LINES 349 1047
2 0 1
2 1 2
2 2 3
2 3 4
2 4 5
2 5 6
2 6 7
2 7 8
2 8 9
2 9 10
2 10 11
2 11 12
2 12 13
2 13 14
2 14 15
2 15 16
2 16 17
2 17 18
2 18 19
2 19 20
2 20 21
2 21 22
2 22 23
2 23 24
2 24 25
2 25 26
2 26 27
2 27 28
2 28 29
2 29 30
2 30 31
2 31 32
2 32 33
2 33 34
2 34 35
2 35 36
2 36 37
2 37 38
2 38 39
2 39 40
2 40 41
2 41 42
2 42 43
2 43 44
2 44 45
2 45 46
2 46 47
2 47 48
2 48 49
2 49 50
2 50 51
2 51 52
2 52 53
2 53 54
2 54 55
2 55 56
2 56 57
2 57 58
2 58 59
2 59 60
2 60 61
2 61 62
2 62 63
2 63 64
2 64 65
2 65 66
2 66 67
2 67 68
2 68 69
2 69 70
2 70 71
2 71 72
2 72 73
2 73 74
2 74 75
2 75 76
2 76 77
2 77 78
2 78 79
2 79 80
2 80 81
2 81 82
2 82 83
2 83 84
2 84 85
2 85 86
2 86 87
2 87 88
2 88 89
2 89 90
2 90 91
2 91 92
2 92 93
2 93 94
2 94 95
2 95 96
2 96 97
2 97 98
2 98 99
2 99 100
2 100 101
2 101 102
2 102 103
2 103 104
2 104 105
2 105 106
2 106 107
2 107 108
2 108 109
2 109 110
2 110 111
2 111 112
2 112 113
2 113 114
2 114 115
2 115 116
2 116 117
2 117 118
2 118 119
2 119 120
2 120 121
2 121 122
2 122 123
2 123 124
2 124 125
2 125 126
2 126 127
2 127 128
2 128 129
2 129 130
2 130 131
2 131 132
2 132 133
2 133 134
2 134 135
2 135 136
2 136 137
2 137 138
2 138 139
2 139 140
2 140 141
2 141 142
2 142 143
2 143 144
2 144 145
2 145 146
2 146 147
2 147 148
2 148 149
2 149 150
2 150 151
2 151 152
2 152 153
2 153 154
2 154 155
2 155 156
2 156 157
2 157 158
2 158 159
2 159 160
2 160 161
2 161 162
2 162 163
2 163 164
2 164 165
2 165 166
2 166 167
2 167 168
2 168 169
2 169 170
2 170 171
2 171 172
2 172 173
2 173 174
2 174 175
2 175 176
2 176 177
2 177 178
2 178 179
2 179 180
2 180 181
2 181 182
2 182 183
2 183 184
2 184 185
2 185 186
2 186 187
2 187 188
2 188 189
2 189 190
2 190 191
2 191 192
2 192 193
2 193 194
2 194 195
2 195 196
2 196 197
2 197 198
2 198 199
2 199 200
2 200 201
2 201 202
2 202 203
2 203 204
2 204 205
2 205 206
2 206 207
2 207 208
2 208 209
2 209 210
2 210 211
2 211 212
2 212 213
2 213 214
2 214 215
2 215 216
2 216 217
2 217 218
2 218 219
2 219 220
2 220 221
2 221 222
2 222 223
2 223 224
2 224 225
2 225 226
2 226 227
2 227 228
2 228 229
2 229 230
2 230 231
2 231 232
2 232 233
2 233 234
2 234 235
2 235 236
2 236 237
2 237 238
2 238 239
2 239 240
2 240 241
2 241 242
2 242 243
2 243 244
2 244 245
2 245 246
2 246 247
2 247 248
2 248 249
2 249 250
2 250 251
2 251 252
2 252 253
2 253 254
2 254 255
2 255 256
2 256 257
2 257 258
2 258 259
2 259 260
2 260 261
2 261 262
2 262 263
2 263 264
2 264 265
2 265 266
2 266 267
2 267 268
2 268 269
2 269 270
2 270 271
2 271 272
2 272 273
2 273 274
2 274 275
2 275 276
2 276 277
2 277 278
2 278 279
2 279 280
2 280 281
2 281 282
2 282 283
2 283 284
2 284 285
2 285 286
2 286 287
2 287 288
2 288 289
2 289 290
2 290 291
2 291 292
2 292 293
2 293 294
2 294 295
2 295 296
2 296 297
2 297 298
2 298 299
2 299 300
2 300 301
2 301 302
2 302 303
2 303 304
2 304 305
2 305 306
2 306 307
2 307 308
2 308 309
2 309 310
2 310 311
2 311 312
2 312 313
2 313 314
2 314 315
2 315 316
2 316 317
2 317 318
2 318 319
2 319 320
2 320 321
2 321 322
2 322 323
2 323 324
2 324 325
2 325 326
2 326 327
2 327 328
2 328 329
2 329 330
2 330 331
2 331 332
2 332 333
2 333 334
2 334 335
2 335 336
2 336 337
2 337 338
2 338 339
2 339 340
2 340 341
2 341 342
2 342 343
2 343 344
2 344 345
2 345 346
2 346 347
2 347 348
2 348 349


POINT_DATA 350
SCALARS a FLOAT 1
LOOKUP_TABLE default
0.0005894628
0.0005894628
0.0005894628
0.0005894628
0.0005894628
0.0005894628
0.0005894628
0.0005894628
0.0005894628
0.0005894628
0.0005894628
0.0005894628
0.0005894628
0.0005894628
0.0005894628
0.0005894628
0.0005894628
0.0005894628
0.0005894628
0.0005894628
0.0005894628
0.0005894628
0.0005894628
0.0005894628
0.0005894628
0.0005894628
0.0005894628
0.0005894628
0.0005894628
0.0005894628
0.0005894628
0.0005894628
0.0005894628
0.0005894628
0.0005894628
0.0005894628
0.0005894628
0.0005894628
0.0005894628
0.0005894628
0.0005894628
0.0005894628
0.0005894628
0.0005894628
0.0005894628
0.0005894628
0.0005894628
0.0005894628
0.0005894628
0.0005894628
0.0005894628
0.0005894628
0.0005894628
0.0005894628
0.0005894628
0.0005894628
0.0005894628
0.0005894628
0.0005894628
0.0005894628
0.0005894628
0.0005894628
0.0005894628
0.0005894628
0.0005894628
0.0005894628
0.0005894628
0.0005894628
0.0005894628
0.0005894628
0.0005894628
0.0005894628
0.0005894628
0.0005894628
0.0005894628
0.0005894628
0.0005894628
0.0005894628
0.0005894628
0.0005894628
0.0005894628
0.0005894628
0.0005894628
0.0005894628
0.0005894628
0.0005894628
0.0005894628
0.0005894628
0.0005894628
0.0005894628
0.0005894628
0.0005894628
0.0005894628
0.0005894628
0.0005894628
0.0005894628
0.0005894628
0.0005894628
0.0005894628
0.0005894628
0.0005894628
0.0005894628
0.0005894628
0.0005894628
0.0005894628
0.0005894628
0.0005894628
0.0005894628
0.0005894628
0.0005894628
0.0005894628
0.0005894628
0.0005894628
0.0005894628
0.0005894628
0.0005894628
0.0005894628
0.0005894628
0.0005894628
0.0005894628
0.0005894628
0.0005894628
0.0005894628
0.0005894628
0.0005894628
0.0005894628
0.0005894628
0.0005894628
0.0005894628
0.0005894628
0.0005894628
0.0005894628
0.0005894628
0.0005894628
0.0005894628
0.0005894628
0.0005894628
0.0005894628
0.0005894628
0.0005894628
0.0005894628
0.0005894628
0.0005894628
0.0005894628
0.0005894628
0.0005894628
0.0005894628
0.0005894628
0.0005894628
0.0005894628
0.0005894628
0.0005894628
0.0005894628
0.0005894628
0.0005894628
0.0005894628
0.0005894628
0.0005894628
0.0005894628
0.0005894628
0.0005894628
0.0005894628
0.0005894628
0.0005894628
0.0005894628
0.0005894628
0.0005894628
0.0005894628
0.0005894628
0.0005894628
0.0005894628
0.0005894628
0.0005894628
0.0005894628
0.0005894628
0.0005894628
0.0005894628
0.0005894628
0.0005894628
0.0005894628
0.0005894628
0.0005894628
0.0005894628
0.0005894628
0.0005894628
0.0005894628
0.0005894628
0.0005894628
0.0005894628
0.0005894628
0.0005894628
0.0005894628
0.0005894628
0.0005894628
0.0005894628
0.0005894628
0.0005894628
0.0005894628
0.0005894628
0.0005894628
0.0005894628
0.0005894628
0.0005894628
0.0005894628
0.0005894628
0.0005894628
0.0005894628
0.0005894628
0.0005894628
0.0005894628
0.0005894628
0.0005894628
0.0005894628
0.0005894628
0.0005894628
0.0005894628
0.0005894628
0.0005894628
0.0005894628
0.0005894628
0.0005894628
0.0005894628
0.0005894628
0.0005894628
0.0005894628
0.0005894628
0.0005894628
0.0005894628
0.0005894628
0.0005894628
0.0005894628
0.0005894628
0.0005894628
0.0005894628
0.0005894628
0.0005894628
0.0005894628
0.0005894628
0.0005894628
0.0005894628
0.0005894628
0.0005894628
0.0005894628
0.0005894628
0.0005894628
0.0005894628
0.0005894628
0.0005894628
0.0005894628
0.0005894628
0.0005894628
0.0005894628
0.0005894628
0.0005894628
0.0005894628
0.0005894628
0.0005894628
0.0005894628
0.0005894628
0.0005894628
0.0005894628
0.0005894628
0.0005894628
0.0005894628
0.0005894628
0.0005894628
0.0005894628
0.0005894628
0.0005894628
0.0005894628
0.0005894628
0.0005894628
0.0005894628
0.0005894628
0.0005894628
0.0005894628
0.0005894628
0.0005894628
0.0005894628
0.0005894628
0.0005894628
0.0005894628
0.0005894628
0.0005894628
0.0005894628
0.0005894628
0.0005894628
0.0005894628
0.0005894628
0.0005894628
0.0005894628
0.0005894628
0.0005894628
0.0005894628
0.0005894628
0.0005894628
0.0005894628
0.0005894628
0.0005894628
0.0005894628
0.0005894628
0.0005894628
0.0005894628
0.0005894628
0.0005894628
0.0005894628
0.0005894628
0.0005894628
0.0005894628
0.0005894628
0.0005894628
0.0005894628
0.0005894628
0.0005894628
0.0005894628
0.0005894628
0.0005894628
0.0005894628
0.0005894628
0.0005894628
0.0005894628
0.0005894628
0.0005894628
0.0005894628
0.0005894628
0.0005894628
0.0005894628
0.0005894628
0.0005894628
0.0005894628
0.0005894628
0.0005894628
0.0005894628
0.0005894628
0.0005894628
0.0005894628
0.0005894628
0.0005894628
0.0005894628
0.0005894628
0.0005894628
0.0005894628
0.0005894628
0.0005894628
0.0005894628
0.0005894628
0.0005894628
0.0005894628
0.0005894628
0.0005894628


SCALARS b FLOAT 1
LOOKUP_TABLE default
0.02357851
0.02357851
0.02357851
0.02357851
0.02357851
0.02357851
0.02357851
0.02357851
0.02357851
0.02357851
0.02357851
0.02357851
0.02357851
0.02357851
0.02357851
0.02357851
0.02357851
0.02357851
0.02357851
0.02357851
0.02357851
0.02357851
0.02357851
0.02357851
0.02357851
0.02357851
0.02357851
0.02357851
0.02357851
0.02357851
0.02357851
0.02357851
0.02357851
0.02357851
0.02357851
0.02357851
0.02357851
0.02357851
0.02357851
0.02357851
0.02357851
0.02357851
0.02357851
0.02357851
0.02357851
0.02357851
0.02357851
0.02357851
0.02357851
0.02357851
0.02357851
0.02357851
0.02357851
0.02357851
0.02357851
0.02357851
0.02357851
0.02357851
0.02357851
0.02357851
0.02357851
0.02357851
0.02357851
0.02357851
0.02357851
0.02357851
0.02357851
0.02357851
0.02357851
0.02357851
0.02357851
0.02357851
0.02357851
0.02357851
0.02357851
0.02357851
0.02357851
0.02357851
0.02357851
0.02357851
0.02357851
0.02357851
0.02357851
0.02357851
0.02357851
0.02357851
0.02357851
0.02357851
0.02357851
0.02357851
0.02357851
0.02357851
0.02357851
0.02357851
0.02357851
0.02357851
0.02357851
0.02357851
0.02357851
0.02357851
0.02357851
0.02357851
0.02357851
0.02357851
0.02357851
0.02357851
0.02357851
0.02357851
0.02357851
0.02357851
0.02357851
0.02357851
0.02357851
0.02357851
0.02357851
0.02357851
0.02357851
0.02357851
0.02357851
0.02357851
0.02357851
0.02357851
0.02357851
0.02357851
0.02357851
0.02357851
0.02357851
0.02357851
0.02357851
0.02357851
0.02357851
0.02357851
0.02357851
0.02357851
0.02357851
0.02357851
0.02357851
0.02357851
0.02357851
0.02357851
0.02357851
0.02357851
0.02357851
0.02357851
0.02357851
0.02357851
0.02357851
0.02357851
0.02357851
0.02357851
0.02357851
0.02357851
0.02357851
0.02357851
0.02357851
0.02357851
0.02357851
0.02357851
0.02357851
0.02357851
0.02357851
0.02357851
0.02357851
0.02357851
0.02357851
0.02357851
0.02357851
0.02357851
0.02357851
0.02357851
0.02357851
0.02357851
0.02357851
0.02357851
0.02357851
0.02357851
0.02357851
0.02357851
0.02357851
0.02357851
0.02357851
0.02357851
0.02357851
0.02357851
0.02357851
0.02357851
0.02357851
0.02357851
0.02357851
0.02357851
0.02357851
0.02357851
0.02357851
0.02357851
0.02357851
0.02357851
0.02357851
0.02357851
0.02357851
0.02357851
0.02357851
0.02357851
0.02357851
0.02357851
0.02357851
0.02357851
0.02357851
0.02357851
0.02357851
0.02357851
0.02357851
0.02357851
0.02357851
0.02357851
0.02357851
0.02357851
0.02357851
0.02357851
0.02357851
0.02357851
0.02357851
0.02357851
0.02357851
0.02357851
0.02357851
0.02357851
0.02357851
0.02357851
0.02357851
0.02357851
0.02357851
0.02357851
0.02357851
0.02357851
0.02357851
0.02357851
0.02357851
0.02357851
0.02357851
0.02357851
0.02357851
0.02357851
0.02357851
0.02357851
0.02357851
0.02357851
0.02357851
0.02357851
0.02357851
0.02357851
0.02357851
0.02357851
0.02357851
0.02357851
0.02357851
0.02357851
0.02357851
0.02357851
0.02357851
0.02357851
0.02357851
0.02357851
0.02357851
0.02357851
0.02357851
0.02357851
0.02357851
0.02357851
0.02357851
0.02357851
0.02357851
0.02357851
0.02357851
0.02357851
0.02357851
0.02357851
0.02357851
0.02357851
0.02357851
0.02357851
0.02357851
0.02357851
0.02357851
0.02357851
0.02357851
0.02357851
0.02357851
0.02357851
0.02357851
0.02357851
0.02357851
0.02357851
0.02357851
0.02357851
0.02357851
0.02357851
0.02357851
0.02357851
0.02357851
0.02357851
0.02357851
0.02357851
0.02357851
0.02357851
0.02357851
0.02357851
0.02357851
0.02357851
0.02357851
0.02357851
0.02357851
0.02357851
0.02357851
0.02357851
0.02357851
0.02357851
0.02357851
0.02357851
0.02357851
0.02357851
0.02357851
0.02357851
0.02357851
0.02357851
0.02357851
0.02357851
0.02357851
0.02357851
0.02357851
0.02357851
0.02357851
0.02357851
0.02357851
0.02357851
0.02357851
0.02357851
0.02357851
0.02357851
0.02357851
0.02357851
0.02357851
0.02357851
0.02357851
0.02357851
0.02357851
0.02357851
0.02357851
0.02357851
0.02357851
0.02357851


VECTORS d1 FLOAT
0 0.8460071 0.5331716
-0.01011159 0.8499426 0.5267782
-0.02021548 0.8537268 0.5203286
-0.03030981 0.8573597 0.5138246
-0.04039274 0.8608414 0.5072677
-0.05046246 0.8641722 0.5006596
-0.0605172 0.8673522 0.4940018
-0.0705552 0.8703818 0.4872961
-0.08057471 0.8732612 0.4805441
-0.09057405 0.8759907 0.4737474
-0.1005515 0.8785707 0.4669077
-0.1105055 0.8810017 0.4600266
-0.1204343 0.883284 0.4531058
-0.1303365 0.8854182 0.4461468
-0.1402103 0.8874047 0.4391514
-0.1500543 0.8892441 0.4321211
-0.159867 0.8909369 0.4250576
-0.1696468 0.8924838 0.4179626
-0.1793924 0.8938853 0.4108375
-0.1891023 0.8951421 0.4036841
-0.1987751 0.896255 0.396504
-0.2084095 0.8972246 0.3892987
-0.2180041 0.8980517 0.3820698
-0.2275577 0.898737 0.374819
-0.2370688 0.8992814 0.3675478
-0.2465364 0.8996856 0.3602578
-0.2559592 0.8999505 0.3529505
-0.265336 0.9000769 0.3456275
-0.2746656 0.9000658 0.3382903
-0.2839469 0.8999181 0.3309405
-0.2931789 0.8996346 0.3235796
-0.3023604 0.8992163 0.3162091
-0.3114905 0.8986642 0.3088305
-0.3205681 0.8979793 0.3014452
-0.3295922 0.8971626 0.2940548
-0.3385618 0.8962151 0.2866608
-0.3474762 0.8951378 0.2792644
-0.3563343 0.8939318 0.2718673
-0.3651353 0.8925981 0.2644708
-0.3738784 0.8911379 0.2570763
-0.3825628 0.8895522 0.2496852
-0.3911876 0.8878421 0.2422989
-0.3997521 0.8860087 0.2349187
-0.4082557 0.8840532 0.2275461
-0.4166975 0.8819767 0.2201823
-0.4250769 0.8797804 0.2128287
-0.4333934 0.8774654 0.2054866
-0.4416461 0.8750328 0.1981572
-0.4498346 0.8724839 0.1908419
-0.4579584 0.8698198 0.1835418
-0.4660167 0.8670418 0.1762583
-0.4740092 0.8641509 0.1689926
-0.4819352 0.8611485 0.1617459
-0.4897945 0.8580356 0.1545193
-0.4975864 0.8548136 0.1473141
-0.5053106 0.8514836 0.1401314
-0.5129666 0.8480469 0.1329725
-0.5205542 0.8445046 0.1258383
-0.5280729 0.840858 0.11873
-0.5355223 0.8371083 0.1116488
-0.5429023 0.8332568 0.1045957
-0.5502124 0.8293046 0.09757177
-0.5574524 0.8252529 0.09057807
-0.5646221 0.8211031 0.08361565
-0.5717212 0.8168563 0.07668552
-0.5787495 0.8125137 0.06978869
-0.5857069 0.8080766 0.06292615
-0.592593 0.8035462 0.05609886
-0.5994078 0.7989237 0.04930778
-0.6061512 0.7942103 0.04255387
-0.6128229 0.7894072 0.03583803
-0.619423 0.7845157 0.02916119
-0.6259512 0.7795369 0.02252423
-0.6324076 0.774472 0.01592804
-0.6387921 0.7693223 0.009373472
-0.6451045 0.764089 0.002861386
-0.651345 0.7587731 -0.00360739
-0.6575135 0.753376 -0.01003204
-0.6636099 0.7478987 -0.01641175
-0.6696344 0.7423425 -0.02274574
-0.6755868 0.7367086 -0.02903324
-0.6814673 0.730998 -0.03527348
-0.687276 0.7252119 -0.04146573
-0.6930128 0.7193515 -0.04760924
-0.6986778 0.713418 -0.0537033
-0.7042712 0.7074124 -0.05974722
-0.709793 0.7013359 -0.06574029
-0.7152434 0.6951896 -0.07168185
-0.7206224 0.6889746 -0.07757123
-0.7259302 0.6826921 -0.08340779
-0.7311669 0.6763431 -0.08919088
-0.7363327 0.6699286 -0.09491989
-0.7414277 0.6634499 -0.1005942
-0.7464521 0.656908 -0.1062132
-0.751406 0.6503038 -0.1117764
-0.7562896 0.6436386 -0.1172831
-0.7611032 0.6369133 -0.1227328
-0.7658469 0.630129 -0.128125
-0.7705208 0.6232867 -0.133459
-0.7751253 0.6163875 -0.1387345
-0.7796605 0.6094323 -0.1439508
-0.7841266 0.6024221 -0.1491075
-0.7885238 0.5953581 -0.1542041
-0.7928525 0.588241 -0.1592401
-0.7971127 0.5810721 -0.1642151
-0.8013048 0.5738521 -0.1691285
-0.8054289 0.5665821 -0.17398
-0.8094853 0.559263 -0.1787691
-0.8134743 0.5518958 -0.1834953
-0.8173961 0.5444814 -0.1881583
-0.821251 0.5370207 -0.1927577
-0.8250392 0.5295147 -0.1972931
-0.8287609 0.5219643 -0.201764
-0.8324164 0.5143704 -0.2061701
-0.836006 0.5067338 -0.2105111
-0.8395299 0.4990555 -0.2147865
-0.8429883 0.4913363 -0.2189961
-0.8463817 0.4835772 -0.2231394
-0.8497101 0.4757789 -0.2272163
-0.8529739 0.4679423 -0.2312262
-0.8561733 0.4600683 -0.235169
-0.8593086 0.4521577 -0.2390443
-0.86238 0.4442114 -0.2428518
-0.8653878 0.4362301 -0.2465913
-0.8683323 0.4282147 -0.2502624
-0.8712136 0.420166 -0.2538649
-0.8740322 0.4120847 -0.2573985
-0.8767881 0.4039717 -0.2608629
-0.8794817 0.3958278 -0.264258
-0.8821132 0.3876537 -0.2675834
-0.8846829 0.3794502 -0.2708389
-0.887191 0.3712181 -0.2740244
-0.8896377 0.362958 -0.2771395
-0.8920233 0.3546709 -0.280184
-0.8943479 0.3463573 -0.2831578
-0.896612 0.3380181 -0.2860607
-0.8988156 0.3296539 -0.2888924
-0.900959 0.3212656 -0.2916527
-0.9030424 0.3128537 -0.2943416
-0.9050661 0.304419 -0.2969587
-0.9070302 0.2959623 -0.2995039
-0.9089349 0.2874842 -0.3019771
-0.9107805 0.2789854 -0.3043782
-0.9125671 0.2704666 -0.3067068
-0.914295 0.2619284 -0.308963
-0.9159643 0.2533716 -0.3111465
-0.9175753 0.2447968 -0.3132572
-0.919128 0.2362048 -0.315295
-0.9206228 0.227596 -0.3172598
-0.9220596 0.2189713 -0.3191514
-0.9234388 0.2103312 -0.3209698
-0.9247604 0.2016764 -0.3227147
-0.9260247 0.1930076 -0.3243862
-0.9272317 0.1843254 -0.325984
-0.9283816 0.1756304 -0.3275082
-0.9294745 0.1669232 -0.3289586
-0.9305106 0.1582045 -0.3303351
-0.93149 0.149475 -0.3316376
-0.9324129 0.1407351 -0.3328662
-0.9332792 0.1319857 -0.3340206
-0.9340891 0.1232272 -0.3351009
-0.9348428 0.1144603 -0.3361069
-0.9355402 0.1056855 -0.3370387
-0.9361816 0.0969036 -0.3378961
-0.9367669 0.08811509 -0.3386791
-0.9372962 0.0793206 -0.3393877
-0.9377697 0.07052072 -0.3400218
-0.9381873 0.06171607 -0.3405814
-0.9385492 0.05290724 -0.3410664
-0.9388553 0.04409483 -0.3414769
-0.9391056 0.03527944 -0.3418127
-0.9393004 0.02646166 -0.342074
-0.9394394 0.0176421 -0.3422606
-0.9395229 0.008821348 -0.3423726
-0.9395507 -2.81164e-14 -0.3424099
-0.9395229 -0.008821348 -0.3423726
-0.9394394 -0.0176421 -0.3422606
-0.9393004 -0.02646166 -0.342074
-0.9391056 -0.03527944 -0.3418127
-0.9388553 -0.04409483 -0.3414769
-0.9385492 -0.05290724 -0.3410664
-0.9381873 -0.06171607 -0.3405814
-0.9377697 -0.07052072 -0.3400218
-0.9372962 -0.0793206 -0.3393877
-0.9367669 -0.08811509 -0.3386791
-0.9361816 -0.0969036 -0.3378961
-0.9355402 -0.1056855 -0.3370387
-0.9348428 -0.1144603 -0.3361069
-0.9340891 -0.1232272 -0.3351009
-0.9332792 -0.1319857 -0.3340206
-0.9324129 -0.1407351 -0.3328662
-0.93149 -0.149475 -0.3316376
-0.9305106 -0.1582045 -0.3303351
-0.9294745 -0.1669232 -0.3289586
-0.9283816 -0.1756304 -0.3275082
-0.9272317 -0.1843254 -0.325984
-0.9260247 -0.1930076 -0.3243862
-0.9247604 -0.2016764 -0.3227147
-0.9234388 -0.2103312 -0.3209698
-0.9220596 -0.2189713 -0.3191514
-0.9206228 -0.227596 -0.3172598
-0.919128 -0.2362048 -0.315295
-0.9175753 -0.2447968 -0.3132572
-0.9159643 -0.2533716 -0.3111465
-0.914295 -0.2619284 -0.308963
-0.9125671 -0.2704666 -0.3067068
-0.9107805 -0.2789854 -0.3043782
-0.9089349 -0.2874842 -0.3019771
-0.9070302 -0.2959623 -0.2995039
-0.9050661 -0.304419 -0.2969587
-0.9030424 -0.3128537 -0.2943416
-0.900959 -0.3212656 -0.2916527
-0.8988156 -0.3296539 -0.2888924
-0.896612 -0.3380181 -0.2860607
-0.8943479 -0.3463573 -0.2831578
-0.8920233 -0.3546709 -0.280184
-0.8896377 -0.362958 -0.2771395
-0.887191 -0.3712181 -0.2740244
-0.8846829 -0.3794502 -0.2708389
-0.8821132 -0.3876537 -0.2675834
-0.8794817 -0.3958278 -0.264258
-0.8767881 -0.4039717 -0.2608629
-0.8740322 -0.4120847 -0.2573985
-0.8712136 -0.420166 -0.2538649