# vtk DataFile Version 2.0
Written badly by Kevin Korner
ASCII
DATASET POLYDATA
POINTS 350 FLOAT
0 0 0
0.00286533 0 0
0.005730539 2.617858e-05 1.061947e-06
0.00859539 7.852936e-05 3.171354e-06
0.01145964 0.0001570438 6.313711e-06
0.01432306 0.000261711 1.047448e-05
0.01718539 0.0003925182 1.563912e-05
0.02004642 0.0005494502 2.179305e-05
0.02290588 0.0007324896 2.892168e-05
0.02576356 0.0009416169 3.70104e-05
0.02861921 0.001176811 4.604461e-05
0.03147258 0.001438047 5.600966e-05
0.03432346 0.001725299 6.689091e-05
0.03717159 0.00203854 7.867372e-05
0.04001674 0.002377739 9.134342e-05
0.04285868 0.002742864 0.0001048853
0.04569717 0.003133879 0.0001192848
0.04853197 0.003550749 0.0001345272
0.05136285 0.003993434 0.0001505978
0.05418958 0.004461893 0.000167482
0.05701191 0.004956084 0.000185165
0.05982962 0.00547596 0.0002036323
0.06264248 0.006021475 0.0002228691
0.06545025 0.006592579 0.0002428608
0.06825269 0.007189221 0.0002635928
0.07104959 0.007811347 0.0002850504
0.0738407 0.008458901 0.000307219
0.07662579 0.009131826 0.000330084
0.07940465 0.009830061 0.0003536309
0.08217703 0.01055354 0.000377845
0.08494271 0.01130221 0.0004027117
0.08770146 0.012076 0.0004282166
0.09045306 0.01287484 0.0004543452
0.09319727 0.01369866 0.0004810828
0.09593388 0.01454738 0.0005084152
0.09866266 0.01542094 0.0005363278
0.1013834 0.01631926 0.0005648061
0.1040958 0.01724226 0.0005938359
0.1067998 0.01818986 0.0006234028
0.109495 0.01916197 0.0006534924
0.1121813 0.02015852 0.0006840905
0.1148584 0.02117941 0.0007151828
0.1175261 0.02222457 0.0007467551
0.1201842 0.02329389 0.0007787931
0.1228325 0.02438729 0.0008112829
0.1254708 0.02550468 0.0008442102
0.1280988 0.02664595 0.000877561
0.1307164 0.02781101 0.0009113213
0.1333233 0.02899977 0.0009454771
0.1359192 0.03021211 0.0009800145
0.1385041 0.03144794 0.00101492
0.1410777 0.03270715 0.001050179
0.1436397 0.03398963 0.001085778
0.1461901 0.03529527 0.001121703
0.1487284 0.03662397 0.001157942
0.1512547 0.03797561 0.001194479
0.1537686 0.03935008 0.001231302
0.1562699 0.04074726 0.001268397
0.1587584 0.04216702 0.001305751
0.1612341 0.04360927 0.001343349
0.1636965 0.04507386 0.00138118
0.1661456 0.04656068 0.00141923
0.1685811 0.0480696 0.001457485
0.1710029 0.0496005 0.001495932
0.1734107 0.05115325 0.001534558
0.1758044 0.05272771 0.001573351
0.1781837 0.05432376 0.001612298
0.1805485 0.05594126 0.001651384
0.1828986 0.05758007 0.001690599
0.1852338 0.05924007 0.001729928
0.1875538 0.0609211 0.00176936
0.1898586 0.06262304 0.001808882
0.1921479 0.06434573 0.001848481
0.1944215 0.06608904 0.001888145
0.1966793 0.06785282 0.001927862
0.1989211 0.06963691 0.001967619
0.2011466 0.07144119 0.002007404
0.2033558 0.07326549 0.002047206
0.2055484 0.07510966 0.002087011
0.2077243 0.07697355 0.002126809
0.2098833 0.07885701 0.002166588
0.2120252 0.08075987 0.002206335
0.2141498 0.08268199 0.002246039
0.216257 0.0846232 0.002285688
0.2183465 0.08658335 0.002325272
0.2204184 0.08856226 0.002364778
0.2224723 0.09055979 0.002404196
0.224508 0.09257575 0.002443514
0.2265256 0.09460999 0.002482721
0.2285247 0.09666234 0.002521806
0.2305052 0.09873263 0.002560758
0.232467 0.1008207 0.002599566
0.2344099 0.1029263 0.00263822
0.2363337 0.1050494 0.00267671
0.2382384 0.1071898 0.002715023
0.2401237 0.1093472 0.002753151
0.2419894 0.1115215 0.002791083
0.2438355 0.1137125 0.002828809
0.2456618 0.11592 0.002866318
0.2474682 0.118144 0.002903601
0.2492544 0.1203841 0.002940647
0.2510205 0.1226401 0.002977447
0.2527661 0.124912 0.003013992
0.2544912 0.1271996 0.003050271
0.2561957 0.1295025 0.003086276
0.2578794 0.1318207 0.003121996
0.2595421 0.134154 0.003157424
0.2611838 0.1365021 0.003192548
0.2628044 0.1388649 0.003227362
0.2644036 0.1412422 0.003261855
0.2659813 0.1436338 0.003296019
0.2675375 0.1460394 0.003329846
0.269072 0.148459 0.003363326
0.2705847 0.1508923 0.003396452
0.2720754 0.1533391 0.003429214
0.2735441 0.1557991 0.003461606
0.2749906 0.1582723 0.003493618
0.2764149 0.1607584 0.003525243
0.2778167 0.1632572 0.003556474
0.2791961 0.1657685 0.003587301
0.2805528 0.1682921 0.003617719
0.2818868 0.1708278 0.003647719
0.2831979 0.1733753 0.003677293
0.2844862 0.1759346 0.003706436
0.2857514 0.1785053 0.003735139
0.2869934 0.1810873 0.003763396
0.2882123 0.1836803 0.0037912
0.2894078 0.1862842 0.003818545
0.2905798 0.1888987 0.003845422
0.2917284 0.1915236 0.003871828
0.2928533 0.1941587 0.003897754
0.2939546 0.1968039 0.003923194
0.295032 0.1994588 0.003948144
0.2960856 0.2021233 0.003972596
0.2971153 0.2047971 0.003996545
0.2981209 0.2074801 0.004019985
0.2991024 0.2101719 0.004042911
0.3000597 0.2128725 0.004065318
0.3009927 0.2155816 0.004087199
0.3019014 0.218299 0.004108551
0.3027857 0.2210243 0.004129367
0.3036455 0.2237575 0.004149643
0.3044807 0.2264984 0.004169375
0.3052914 0.2292466 0.004188557
0.3060773 0.2320019 0.004207186
0.3068385 0.2347642 0.004225256
0.3075749 0.2375333 0.004242765
0.3082865 0.2403088 0.004259707
0.3089731 0.2430906 0.004276078
0.3096348 0.2458784 0.004291876
0.3102715 0.2486721 0.004307096
0.310883 0.2514713 0.004321735
0.3114695 0.254276 0.004335789
0.3120308 0.2570858 0.004349255
0.3125669 0.2599005 0.004362131
0.3130777 0.2627199 0.004374412
0.3135632 0.2655437 0.004386097
0.3140234 0.2683719 0.004397183
0.3144583 0.271204 0.004407667
0.3148677 0.2740399 0.004417547
0.3152517 0.2768794 0.00442682
0.3156102 0.2797221 0.004435484
0.3159433 0.282568 0.004443538
0.3162508 0.2854168 0.004450979
0.3165328 0.2882682 0.004457806
0.3167892 0.2911221 0.004464018
0.3170201 0.2939781 0.004469612
0.3172253 0.296836 0.004474588
0.3174049 0.2996957 0.004478945
0.3175589 0.3025569 0.004482681
0.3176872 0.3054194 0.004485795
0.3177899 0.3082828 0.004488288
0.3178669 0.3111471 0.004490158
0.3179183 0.314012 0.004491404
0.3179439 0.3168772 0.004492028
0.3179439 0.3197426 0.004492028
0.3179183 0.3226078 0.004491404
0.3178669 0.3254726 0.004490158
0.3177899 0.3283369 0.004488288
0.3176872 0.3312004 0.004485795
0.3175589 0.3340629 0.004482681
0.3174049 0.3369241 0.004478945
0.3172253 0.3397837 0.004474588
0.3170201 0.3426417 0.004469612
0.3167892 0.3454977 0.004464018
0.3165328 0.3483515 0.004457806
0.3162508 0.351203 0.004450979
0.3159433 0.3540517 0.004443538
0.3156102 0.3568976 0.004435484
0.3152517 0.3597404 0.00442682
0.3148677 0.3625799 0.004417547
0.3144583 0.3654158 0.004407667
0.3140234 0.3682479 0.004397183
0.3135632 0.371076 0.004386097
0.3130777 0.3738999 0.004374412
0.3125669 0.3767193 0.004362131
0.3120308 0.379534 0.004349255
0.3114695 0.3823438 0.004335789
0.310883 0.3851484 0.004321735
0.3102715 0.3879477 0.004307096
0.3096348 0.3907414 0.004291876
0.3089731 0.3935292 0.004276078
0.3082865 0.396311 0.004259707
0.3075749 0.3990865 0.004242765
0.3068385 0.4018555 0.004225256
0.3060773 0.4046178 0.004207186
0.3052914 0.4073732 0.004188557
0.3044807 0.4101214 0.004169375
0.3036455 0.4128622 0.004149643
0.3027857 0.4155954 0.004129367
0.3019014 0.4183208 0.004108551
0.3009927 0.4210382 0.004087199
0.3000597 0.4237472 0.004065318
0.2991024 0.4264478 0.004042911
0.2981209 0.4291397 0.004019985
0.2971153 0.4318227 0.003996545
0.2960856 0.4344965 0.003972596
0.295032 0.437161 0.003948144
0.2939546 0.4398159 0.003923194
0.2928533 0.442461 0.003897754
0.2917284 0.4450962 0.003871828
0.2905798 0.4477211 0.003845422
0.2894078 0.4503356 0.003818545
0.2882123 0.4529395 0.0037912
0.2869934 0.4555325 0.003763396
0.2857514 0.4581145 0.003735139
0.2844862 0.4606852 0.003706436
0.2831979 0.4632444 0.003677293
0.2818868 0.465792 0.003647719
0.2805528 0.4683277 0.003617719
0.2791961 0.4708513 0.003587301
0.2778167 0.4733626 0.003556474
0.2764149 0.4758614 0.003525243
0.2749906 0.4783474 0.003493618
0.2735441 0.4808206 0.003461606
0.2720754 0.4832807 0.003429214
0.2705847 0.4857275 0.003396452
0.269072 0.4881608 0.003363326
0.2675375 0.4905803 0.003329846
0.2659813 0.492986 0.003296019
0.2644036 0.4953776 0.003261855
0.2628044 0.4977549 0.003227362
0.2611838 0.5001177 0.003192548
0.2595421 0.5024658 0.003157424
0.2578794 0.5047991 0.003121996
0.2561957 0.5071173 0.003086276
0.2544912 0.5094202 0.003050271
0.2527661 0.5117077 0.003013992
0.2510205 0.5139796 0.002977447
0.2492544 0.5162357 0.002940647
0.2474682 0.5184758 0.002903601
0.2456618 0.5206997 0.002866318
0.2438355 0.5229073 0.002828809
0.2419894 0.5250983 0.002791083
0.2401237 0.5272726 0.002753151
0.2382384 0.52943 0.002715023
0.2363337 0.5315703 0.00267671
0.2344099 0.5336934 0.00263822
0.232467 0.5357991 0.002599566
0.2305052 0.5378871 0.002560758
0.2285247 0.5399574 0.002521806
0.2265256 0.5420098 0.002482721
0.224508 0.544044 0.002443514
0.2224723 0.54606 0.002404196
0.2204184 0.5480575 0.002364778
0.2183465 0.5500364 0.002325272
0.216257 0.5519966 0.002285688
0.2141498 0.5539378 0.002246039
0.2120252 0.5558599 0.002206335
0.2098833 0.5577628 0.002166588
0.2077243 0.5596462 0.002126809
0.2055484 0.5615101 0.002087011
0.2033558 0.5633543 0.002047206
0.2011466 0.5651786 0.002007404
0.1989211 0.5669829 0.001967619
0.1966793 0.568767 0.001927862
0.1944215 0.5705307 0.001888145
0.1921479 0.572274 0.001848481
0.1898586 0.5739967 0.001808882
0.1875538 0.5756987 0.00176936
0.1852338 0.5773797 0.001729928
0.1828986 0.5790397 0.001690599
0.1805485 0.5806785 0.001651384
0.1781837 0.582296 0.001612298
0.1758044 0.5838921 0.001573351
0.1734107 0.5854665 0.001534558
0.1710029 0.5870193 0.001495932
0.1685811 0.5885502 0.001457485
0.1661456 0.5900591 0.00141923
0.1636965 0.5915459 0.00138118
0.1612341 0.5930105 0.001343349
0.1587584 0.5944527 0.001305751
0.1562699 0.5958725 0.001268397
0.1537686 0.5972697 0.001231302
0.1512547 0.5986442 0.001194479
0.1487284 0.5999958 0.001157942
0.1461901 0.6013245 0.001121703
0.1436397 0.6026301 0.001085778
0.1410777 0.6039126 0.001050179
0.1385041 0.6051718 0.00101492
0.1359192 0.6064077 0.0009800145
0.1333233 0.60762 0.0009454771
0.1307164 0.6088088 0.0009113213
0.1280988 0.6099738 0.000877561
0.1254708 0.6111151 0.0008442102
0.1228325 0.6122325 0.0008112829
0.1201842 0.6133259 0.0007787931
0.1175261 0.6143952 0.0007467551
0.1148584 0.6154404 0.0007151828
0.1121813 0.6164613 0.0006840905
0.109495 0.6174578 0.0006534924
0.1067998 0.6184299 0.0006234028
0.1040958 0.6193775 0.0005938359
0.1013834 0.6203005 0.0005648061
0.09866266 0.6211988 0.0005363278
0.09593388 0.6220724 0.0005084152
0.09319727 0.6229211 0.0004810828
0.09045306 0.6237449 0.0004543452
0.08770146 0.6245438 0.0004282166
0.08494271 0.6253176 0.0004027117
0.08217703 0.6260662 0.000377845
0.07940465 0.6267897 0.0003536309
0.07662579 0.6274879 0.000330084
0.0738407 0.6281609 0.000307219
0.07104959 0.6288084 0.0002850504
0.06825269 0.6294306 0.0002635928
0.06545025 0.6300272 0.0002428608
0.06264248 0.6305983 0.0002228691
0.05982962 0.6311438 0.0002036323
0.05701191 0.6316637 0.000185165
0.05418958 0.6321579 0.000167482
0.05136285 0.6326263 0.0001505978
0.04853197 0.633069 0.0001345272
0.04569717 0.6334859 0.0001192848
0.04285868 0.6338769 0.0001048853
0.04001674 0.634242 9.134342e-05
0.03717159 0.6345812 7.867372e-05
0.03432346 0.6348945 6.689091e-05
0.03147258 0.6351817 5.600966e-05
0.02861921 0.635443 4.604461e-05
0.02576356 0.6356782 3.70104e-05
0.02290588 0.6358873 2.892168e-05
0.02004642 0.6360703 2.179305e-05
0.01718539 0.6362273 1.563912e-05
0.01432306 0.6363581 1.047448e-05
0.01145964 0.6364627 6.313711e-06
0.00859539 0.6365412 3.171354e-06
0.005730539 0.6365936 1.061947e-06
0.00286533 0.6366198 0
0 0.6366198 0

LINES 349 1047
2 0 1
2 1 2
2 2 3
2 3 4
2 4 5
2 5 6
2 6 7
2 7 8
2 8 9
2 9 10
2 10 11
2 11 12
2 12 13
2 13 14
2 14 15
2 15 16
2 16 17
2 17 18
2 18 19
2 19 20
2 20 21
2 21 22
2 22 23
2 23 24
2 24 25
2 25 26
2 26 27
2 27 28
2 28 29
2 29 30
2 30 31
2 31 32
2 32 33
2 33 34
2 34 35
2 35 36
2 36 37
2 37 38
2 38 39
2 39 40
2 40 41
2 41 42
2 42 43
2 43 44
2 44 45
2 45 46
2 46 47
2 47 48
2 48 49
2 49 50
2 50 51
2 51 52
2 52 53
2 53 54
2 54 55
2 55 56
2 56 57
2 57 58
2 58 59
2 59 60
2 60 61
2 61 62
2 62 63
2 63 64
2 64 65
2 65 66
2 66 67
2 67 68
2 68 69
2 69 70
2 70 71
2 71 72
2 72 73
2 73 74
2 74 75
2 75 76
2 76 77
2 77 78
2 78 79
2 79 80
2 80 81
2 81 82
2 82 83
2 83 84
2 84 85
2 85 86
2 86 87
2 87 88
2 88 89
2 89 90
2 90 91
2 91 92
2 92 93
2 93 94
2 94 95
2 95 96
2 96 97
2 97 98
2 98 99
2 99 100
2 100 101
2 101 102
2 102 103
2 103 104
2 104 105
2 105 106
2 106 107
2 107 108
2 108 109
2 109 110
2 110 111
2 111 112
2 112 113
2 113 114
2 114 115
2 115 116
2 116 117
2 117 118
2 118 119
2 119 120
2 120 121
2 121 122
2 122 123
2 123 124
2 124 125
2 125 126
2 126 127
2 127 128
2 128 129
2 129 130
2 130 131
2 131 132
2 132 133
2 133 134
2 134 135
2 135 136
2 136 137
2 137 138
2 138 139
2 139 140
2 140 141
2 141 142
2 142 143
2 143 144
2 144 145
2 145 146
2 146 147
2 147 148
2 148 149
2 149 150
2 150 151
2 151 152
2 152 153
2 153 154
2 154 155
2 155 156
2 156 157
2 157 158
2 158 159
2 159 160
2 160 161
2 161 162
2 162 163
2 163 164
2 164 165
2 165 166
2 166 167
2 167 168
2 168 169
2 169 170
2 170 171
2 171 172
2 172 173
2 173 174
2 174 175
2 175 176
2 176 177
2 177 178
2 178 179
2 179 180
2 180 181
2 181 182
2 182 183
2 183 184
2 184 185
2 185 186
2 186 187
2 187 188
2 188 189
2 189 190
2 190 191
2 191 192
2 192 193
2 193 194
2 194 195
2 195 196
2 196 197
2 197 198
2 198 199
2 199 200
2 200 201
2 201 202
2 202 203
2 203 204
2 204 205
2 205 206
2 206 207
2 207 208
2 208 209
2 209 210
2 210 211
2 211 212
2 212 213
2 213 214
2 214 215
2 215 216
2 216 217
2 217 218
2 218 219
2 219 220
2 220 221
2 221 222
2 222 223
2 223 224
2 224 225
2 225 226
2 226 227
2 227 228
2 228 229
2 229 230
2 230 231
2 231 232
2 232 233
2 233 234
2 234 235
2 235 236
2 236 237
2 237 238
2 238 239
2 239 240
2 240 241
2 241 242
2 242 243
2 243 244
2 244 245
2 245 246
2 246 247
2 247 248
2 248 249
2 249 250
2 250 251
2 251 252
2 252 253
2 253 254
2 254 255
2 255 256
2 256 257
2 257 258
2 258 259
2 259 260
2 260 261
2 261 262
2 262 263
2 263 264
2 264 265
2 265 266
2 266 267
2 267 268
2 268 269
2 269 270
2 270 271
2 271 272
2 272 273
2 273 274
2 274 275
2 275 276
2 276 277
2 277 278
2 278 279
2 279 280
2 280 281
2 281 282
2 282 283
2 283 284
2 284 285
2 285 286
2 286 287
2 287 288
2 288 289
2 289 290
2 290 291
2 291 292
2 292 293
2 293 294
2 294 295
2 295 296
2 296 297
2 297 298
2 298 299
2 299 300
2 300 301
2 301 302
2 302 303
2 303 304
2 304 305
2 305 306
2 306 307
2 307 308
2 308 309
2 309 310
2 310 311
2 311 312
2 312 313
2 313 314
2 314 315
2 315 316
2 316 317
2 317 318
2 318 319
2 319 320
2 320 321
2 321 322
2 322 323
2 323 324
2 324 325
2 325 326
2 326 327
2 327 328
2 328 329
2 329 330
2 330 331
2 331 332
2 332 333
2 333 334
2 334 335
2 335 336
2 336 337
2 337 338
2 338 339
2 339 340
2 340 341
2 341 342
2 342 343
2 343 344
2 344 345
2 345 346
2 346 347
2 347 348
2 348 349


POINT_DATA 350
SCALARS a FLOAT 1
LOOKUP_TABLE default
0.0005894628
0.0005894628
0.0005894628
0.0005894628
0.0005894628
0.0005894628
0.0005894628
0.0005894628
0.0005894628
0.0005894628
0.0005894628
0.0005894628
0.0005894628
0.0005894628
0.0005894628
0.0005894628
0.0005894628
0.0005894628
0.0005894628
0.0005894628
0.0005894628
0.0005894628
0.0005894628
0.0005894628
0.0005894628
0.0005894628
0.0005894628
0.0005894628
0.0005894628
0.0005894628
0.0005894628
0.0005894628
0.0005894628
0.0005894628
0.0005894628
0.0005894628
0.0005894628
0.0005894628
0.0005894628
0.0005894628
0.0005894628
0.0005894628
0.0005894628
0.0005894628
0.0005894628
0.0005894628
0.0005894628
0.0005894628
0.0005894628
0.0005894628
0.0005894628
0.0005894628
0.0005894628
0.0005894628
0.0005894628
0.0005894628
0.0005894628
0.0005894628
0.0005894628
0.0005894628
0.0005894628
0.0005894628
0.0005894628
0.0005894628
0.0005894628
0.0005894628
0.0005894628
0.0005894628
0.0005894628
0.0005894628
0.0005894628
0.0005894628
0.0005894628
0.0005894628
0.0005894628
0.0005894628
0.0005894628
0.0005894628
0.0005894628
0.0005894628
0.0005894628
0.0005894628
0.0005894628
0.0005894628
0.0005894628
0.0005894628
0.0005894628
0.0005894628
0.0005894628
0.0005894628
0.0005894628
0.0005894628
0.0005894628
0.0005894628
0.0005894628
0.0005894628
0.0005894628
0.0005894628
0.0005894628
0.0005894628
0.0005894628
0.0005894628
0.0005894628
0.0005894628
0.0005894628
0.0005894628
0.0005894628
0.0005894628
0.0005894628
0.0005894628
0.0005894628
0.0005894628
0.0005894628
0.0005894628
0.0005894628
0.0005894628
0.0005894628
0.0005894628
0.0005894628
0.0005894628
0.0005894628
0.0005894628
0.0005894628
0.0005894628
0.0005894628
0.0005894628
0.0005894628
0.0005894628
0.0005894628
0.0005894628
0.0005894628
0.0005894628
0.0005894628
0.0005894628
0.0005894628
0.0005894628
0.0005894628
0.0005894628
0.0005894628
0.0005894628
0.0005894628
0.0005894628
0.0005894628
0.0005894628
0.0005894628
0.0005894628
0.0005894628
0.0005894628
0.0005894628
0.0005894628
0.0005894628
0.0005894628
0.0005894628
0.0005894628
0.0005894628
0.0005894628
0.0005894628
0.0005894628
0.0005894628
0.0005894628
0.0005894628
0.0005894628
0.0005894628
0.0005894628
0.0005894628
0.0005894628
0.0005894628
0.0005894628
0.0005894628
0.0005894628
0.0005894628
0.0005894628
0.0005894628
0.0005894628
0.0005894628
0.0005894628
0.0005894628
0.0005894628
0.0005894628
0.0005894628
0.0005894628
0.0005894628
0.0005894628
0.0005894628
0.0005894628
0.0005894628
0.0005894628
0.0005894628
0.0005894628
0.0005894628
0.0005894628
0.0005894628
0.0005894628
0.0005894628
0.0005894628
0.0005894628
0.0005894628
0.0005894628
0.0005894628
0.0005894628
0.0005894628
0.0005894628
0.0005894628
0.0005894628
0.0005894628
0.0005894628
0.0005894628
0.0005894628
0.0005894628
0.0005894628
0.0005894628
0.0005894628
0.0005894628
0.0005894628
0.0005894628
0.0005894628
0.0005894628
0.0005894628
0.0005894628
0.0005894628
0.0005894628
0.0005894628
0.0005894628
0.0005894628
0.0005894628
0.0005894628
0.0005894628
0.0005894628
0.0005894628
0.0005894628
0.0005894628
0.0005894628
0.0005894628
0.0005894628
0.0005894628
0.0005894628
0.0005894628
0.0005894628
0.0005894628
0.0005894628
0.0005894628
0.0005894628
0.0005894628
0.0005894628
0.0005894628
0.0005894628
0.0005894628
0.0005894628
0.0005894628
0.0005894628
0.0005894628
0.0005894628
0.0005894628
0.0005894628
0.0005894628
0.0005894628
0.0005894628
0.0005894628
0.0005894628
0.0005894628
0.0005894628
0.0005894628
0.0005894628
0.0005894628
0.0005894628
0.0005894628
0.0005894628
0.0005894628
0.0005894628
0.0005894628
0.0005894628
0.0005894628
0.0005894628
0.0005894628
0.0005894628
0.0005894628
0.0005894628
0.0005894628
0.0005894628
0.0005894628
0.0005894628
0.0005894628
0.0005894628
0.0005894628
0.0005894628
0.0005894628
0.0005894628
0.0005894628
0.0005894628
0.0005894628
0.0005894628
0.0005894628
0.0005894628
0.0005894628
0.0005894628
0.0005894628
0.0005894628
0.0005894628
0.0005894628
0.0005894628
0.0005894628
0.0005894628
0.0005894628
0.0005894628
0.0005894628
0.0005894628
0.0005894628
0.0005894628
0.0005894628
0.0005894628
0.0005894628
0.0005894628
0.0005894628
0.0005894628
0.0005894628
0.0005894628
0.0005894628
0.0005894628
0.0005894628
0.0005894628
0.0005894628
0.0005894628
0.0005894628
0.0005894628
0.0005894628
0.0005894628
0.0005894628
0.0005894628
0.0005894628
0.0005894628
0.0005894628
0.0005894628
0.0005894628
0.0005894628
0.0005894628
0.0005894628
0.0005894628
0.0005894628
0.0005894628
0.0005894628
0.0005894628
0.0005894628
0.0005894628
0.0005894628
0.0005894628
0.0005894628
0.0005894628
0.0005894628
0.0005894628
0.0005894628


SCALARS b FLOAT 1
LOOKUP_TABLE default
0.02357851
0.02357851
0.02357851
0.02357851
0.02357851
0.02357851
0.02357851
0.02357851
0.02357851
0.02357851
0.02357851
0.02357851
0.02357851
0.02357851
0.02357851
0.02357851
0.02357851
0.02357851
0.02357851
0.02357851
0.02357851
0.02357851
0.02357851
0.02357851
0.02357851
0.02357851
0.02357851
0.02357851
0.02357851
0.02357851
0.02357851
0.02357851
0.02357851
0.02357851
0.02357851
0.02357851
0.02357851
0.02357851
0.02357851
0.02357851
0.02357851
0.02357851
0.02357851
0.02357851
0.02357851
0.02357851
0.02357851
0.02357851
0.02357851
0.02357851
0.02357851
0.02357851
0.02357851
0.02357851
0.02357851
0.02357851
0.02357851
0.02357851
0.02357851
0.02357851
0.02357851
0.02357851
0.02357851
0.02357851
0.02357851
0.02357851
0.02357851
0.02357851
0.02357851
0.02357851
0.02357851
0.02357851
0.02357851
0.02357851
0.02357851
0.02357851
0.02357851
0.02357851
0.02357851
0.02357851
0.02357851
0.02357851
0.02357851
0.02357851
0.02357851
0.02357851
0.02357851
0.02357851
0.02357851
0.02357851
0.02357851
0.02357851
0.02357851
0.02357851
0.02357851
0.02357851
0.02357851
0.02357851
0.02357851
0.02357851
0.02357851
0.02357851
0.02357851
0.02357851
0.02357851
0.02357851
0.02357851
0.02357851
0.02357851
0.02357851
0.02357851
0.02357851
0.02357851
0.02357851
0.02357851
0.02357851
0.02357851
0.02357851
0.02357851
0.02357851
0.02357851
0.02357851
0.02357851
0.02357851
0.02357851
0.02357851
0.02357851
0.02357851
0.02357851
0.02357851
0.02357851
0.02357851
0.02357851
0.02357851
0.02357851
0.02357851
0.02357851
0.02357851
0.02357851
0.02357851
0.02357851
0.02357851
0.02357851
0.02357851
0.02357851
0.02357851
0.02357851
0.02357851
0.02357851
0.02357851
0.02357851
0.02357851
0.02357851
0.02357851
0.02357851
0.02357851
0.02357851
0.02357851
0.02357851
0.02357851
0.02357851
0.02357851
0.02357851
0.02357851
0.02357851
0.02357851
0.02357851
0.02357851
0.02357851
0.02357851
0.02357851
0.02357851
0.02357851
0.02357851
0.02357851
0.02357851
0.02357851
0.02357851
0.02357851
0.02357851
0.02357851
0.02357851
0.02357851
0.02357851
0.02357851
0.02357851
0.02357851
0.02357851
0.02357851
0.02357851
0.02357851
0.02357851
0.02357851
0.02357851
0.02357851
0.02357851
0.02357851
0.02357851
0.02357851
0.02357851
0.02357851
0.02357851
0.02357851
0.02357851
0.02357851
0.02357851
0.02357851
0.02357851
0.02357851
0.02357851
0.02357851
0.02357851
0.02357851
0.02357851
0.02357851
0.02357851
0.02357851
0.02357851
0.02357851
0.02357851
0.02357851
0.02357851
0.02357851
0.02357851
0.02357851
0.02357851
0.02357851
0.02357851
0.02357851
0.02357851
0.02357851
0.02357851
0.02357851
0.02357851
0.02357851
0.02357851
0.02357851
0.02357851
0.02357851
0.02357851
0.02357851
0.02357851
0.02357851
0.02357851
0.02357851
0.02357851
0.02357851
0.02357851
0.02357851
0.02357851
0.02357851
0.02357851
0.02357851
0.02357851
0.02357851
0.02357851
0.02357851
0.02357851
0.02357851
0.02357851
0.02357851
0.02357851
0.02357851
0.02357851
0.02357851
0.02357851
0.02357851
0.02357851
0.02357851
0.02357851
0.02357851
0.02357851
0.02357851
0.02357851
0.02357851
0.02357851
0.02357851
0.02357851
0.02357851
0.02357851
0.02357851
0.02357851
0.02357851
0.02357851
0.02357851
0.02357851
0.02357851
0.02357851
0.02357851
0.02357851
0.02357851
0.02357851
0.02357851
0.02357851
0.02357851
0.02357851
0.02357851
0.02357851
0.02357851
0.02357851
0.02357851
0.02357851
0.02357851
0.02357851
0.02357851
0.02357851
0.02357851
0.02357851
0.02357851
0.02357851
0.02357851
0.02357851
0.02357851
0.02357851
0.02357851
0.02357851
0.02357851
0.02357851
0.02357851
0.02357851
0.02357851
0.02357851
0.02357851
0.02357851
0.02357851
0.02357851
0.02357851
0.02357851
0.02357851
0.02357851
0.02357851
0.02357851
0.02357851
0.02357851
0.02357851
0.02357851
0.02357851
0.02357851
0.02357851
0.02357851
0.02357851
0.02357851
0.02357851
0.02357851
0.02357851
0.02357851
0.02357851
0.02357851
0.02357851
0.02357851


VECTORS d1 FLOAT
0 0.9991661 0.04082935
-0.009143838 0.9991464 0.04028447
-0.01828525 0.9990428 0.03973845
-0.02742346 0.9988553 0.03919134
-0.03655771 0.9985841 0.03864321
-0.04568723 0.9982292 0.03809412
-0.05481127 0.9977906 0.03754413
-0.06392907 0.9972686 0.03699331
-0.07303986 0.996663 0.03644172
-0.08214289 0.9959741 0.03588942
-0.0912374 0.995202 0.03533648
-0.1003226 0.9943468 0.03478295
-0.1093979 0.9934085 0.0342289
-0.1184623 0.9923874 0.03367439
-0.1275152 0.9912835 0.03311948
-0.1365559 0.990097 0.03256424
-0.1455835 0.988828 0.03200873
-0.1545973 0.9874768 0.031453
-0.1635967 0.9860434 0.03089713
-0.1725808 0.9845279 0.03034117
-0.1815489 0.9829307 0.02978518
-0.1905004 0.9812519 0.02922923
-0.1994343 0.9794916 0.02867338
-0.2083501 0.9776501 0.02811768
-0.217247 0.9757275 0.02756221
-0.2261243 0.973724 0.02700701
-0.2349811 0.9716399 0.02645216
-0.243817 0.9694754 0.02589771
-0.252631 0.9672307 0.02534372
-0.2614225 0.9649061 0.02479025
-0.2701907 0.9625017 0.02423737
-0.2789351 0.9600178 0.02368513
-0.2876548 0.9574547 0.02313359
-0.2963491 0.9548127 0.02258281
-0.3050174 0.9520919 0.02203286
-0.3136589 0.9492926 0.02148379
-0.322273 0.9464152 0.02093565
-0.330859 0.9434599 0.02038852
-0.3394161 0.940427 0.01984244
-0.3479437 0.9373168 0.01929748
-0.356441 0.9341296 0.01875369
-0.3649075 0.9308656 0.01821114
-0.3733425 0.9275253 0.01766987
-0.3817452 0.9241089 0.01712995
-0.390115 0.9206167 0.01659144
-0.3984512 0.917049 0.01605439
-0.4067531 0.9134063 0.01551885
-0.4150202 0.9096888 0.0149849
-0.4232517 0.9058968 0.01445257
-0.431447 0.9020308 0.01392193
-0.4396055 0.8980911 0.01339303
-0.4477264 0.894078 0.01286593
-0.4558091 0.889992 0.01234068
-0.4638531 0.8858333 0.01181734
-0.4718577 0.8816024 0.01129597
-0.4798222 0.8772996 0.01077661
-0.487746 0.8729253 0.01025933
-0.4956285 0.86848 0.009744165
-0.503469 0.863964 0.009231183
-0.511267 0.8593777 0.008720433
-0.5190219 0.8547215 0.008211967
-0.526733 0.8499959 0.007705839
-0.5343997 0.8452012 0.007202101
-0.5420214 0.840338 0.006700804
-0.5495976 0.8354065 0.006202
-0.5571276 0.8304073 0.00570574
-0.5646108 0.8253408 0.005212076
-0.5720468 0.8202074 0.004721057
-0.5794348 0.8150076 0.004232735
-0.5867743 0.8097418 0.003747158
-0.5940648 0.8044106 0.003264377
-0.6013057 0.7990142 0.002784441
-0.6084963 0.7935533 0.002307398
-0.6156363 0.7880283 0.001833298
-0.6227249 0.7824397 0.001362188
-0.6297617 0.7767879 0.0008941155
-0.6367461 0.7710734 0.000429129
-0.6436776 0.7652968 -3.272497e-05
-0.6505557 0.7594584 -0.0004913997
-0.6573797 0.7535589 -0.0009468489
-0.6641492 0.7475987 -0.001399027
-0.6708637 0.7415783 -0.001847887
-0.6775227 0.7354983 -0.002293386
-0.6841256 0.7293591 -0.002735478
-0.6906719 0.7231613 -0.003174118
-0.6971612 0.7169054 -0.003609264
-0.7035929 0.7105918 -0.00404087
-0.7099665 0.7042213 -0.004468895
-0.7162816 0.6977942 -0.004893295
-0.7225376 0.6913112 -0.005314028
-0.7287342 0.6847727 -0.005731051
-0.7348708 0.6781793 -0.006144325
-0.7409469 0.6715316 -0.006553806
-0.7469622 0.6648301 -0.006959456
-0.7529161 0.6580754 -0.007361232
-0.7588081 0.651268 -0.007759097
-0.7646379 0.6444086 -0.008153009
-0.770405 0.6374976 -0.008542931
-0.776109 0.6305356 -0.008928823
-0.7817493 0.6235233 -0.009310647
-0.7873257 0.6164611 -0.009688367
-0.7928377 0.6093498 -0.01006194
-0.7982848 0.6021898 -0.01043134
-0.8036667 0.5949818 -0.01079652
-0.8089829 0.5877263 -0.01115745
-0.8142331 0.5804239 -0.0115141
-0.8194168 0.5730753 -0.01186642
-0.8245337 0.565681 -0.01221438
-0.8295833 0.5582417 -0.01255796
-0.8345654 0.550758 -0.01289711
-0.8394794 0.5432304 -0.0132318
-0.8443251 0.5356595 -0.01356201
-0.8491022 0.5280461 -0.01388769
-0.8538101 0.5203907 -0.01420881
-0.8584486 0.5126939 -0.01452535
-0.8630174 0.5049563 -0.01483728
-0.867516 0.4971787 -0.01514456
-0.8719442 0.4893616 -0.01544716
-0.8763016 0.4815056 -0.01574505
-0.8805879 0.4736114 -0.01603821
-0.8848028 0.4656796 -0.01632661
-0.8889459 0.4577108 -0.01661021
-0.893017 0.4497058 -0.016889
-0.8970158 0.4416651 -0.01716294
-0.9009419 0.4335894 -0.01743201
-0.9047951 0.4254794 -0.01769618
-0.908575 0.4173356 -0.01795543
-0.9122815 0.4091588 -0.01820972
-0.9159141 0.4009496 -0.01845905
-0.9194727 0.3927087 -0.01870337
-0.922957 0.3844366 -0.01894268
-0.9263667 0.3761342 -0.01917694
-0.9297016 0.367802 -0.01940613
-0.9329614 0.3594407 -0.01963024
-0.936146 0.3510509 -0.01984923
-0.9392549 0.3426335 -0.02006309
-0.9422881 0.3341889 -0.0202718
-0.9452452 0.3257179 -0.02047534
-0.9481262 0.3172212 -0.02067369
-0.9509307 0.3086995 -0.02086683
-0.9536586 0.3001533 -0.02105473
-0.9563096 0.2915835 -0.02123739
-0.9588836 0.2829906 -0.02141479
-0.9613803 0.2743754 -0.0215869
-0.9637997 0.2657386 -0.02175372
-0.9661414 0.2570808 -0.02191522
-0.9684054 0.2484026 -0.02207139
-0.9705914 0.2397049 -0.02222221
-0.9726994 0.2309883 -0.02236768
-0.9747291 0.2222535 -0.02250777
-0.9766804 0.2135011 -0.02264248
-0.9785532 0.2047319 -0.02277179
-0.9803472 0.1959466 -0.02289569
-0.9820625 0.1871458 -0.02301416
-0.9836989 0.1783303 -0.0231272
-0.9852561 0.1695007 -0.02323479
-0.9867342 0.1606578 -0.02333693
-0.9881331 0.1518022 -0.0234336
-0.9894525 0.1429347 -0.0235248
-0.9906925 0.1340559 -0.02361051
-0.9918529 0.1251665 -0.02369073
-0.9929336 0.1162672 -0.02376545
-0.9939346 0.1073589 -0.02383467
-0.9948558 0.09844202 -0.02389837
-0.9956971 0.08951742 -0.02395656
-0.9964585 0.08058578 -0.02400922
-0.9971399 0.07164779 -0.02405635
-0.9977412 0.06270416 -0.02409794
-0.9982624 0.0537556 -0.024134
-0.9987036 0.0448028 -0.02416452
-0.9990645 0.03584647 -0.02418949
-0.9993453 0.02688732 -0.02420891
-0.9995459 0.01792606 -0.02422279
-0.9996662 0.008963382 -0.02423111
-0.9997063 -2.21238e-13 -0.02423389
-0.9996662 -0.008963382 -0.02423111
-0.9995459 -0.01792606 -0.02422279
-0.9993453 -0.02688732 -0.02420891
-0.9990645 -0.03584647 -0.02418949
-0.9987036 -0.0448028 -0.02416452
-0.9982624 -0.0537556 -0.024134
-0.9977412 -0.06270416 -0.02409794
-0.9971399 -0.07164779 -0.02405635
-0.9964585 -0.08058578 -0.02400922
-0.9956971 -0.08951742 -0.02395656
-0.9948558 -0.09844202 -0.02389837
-0.9939346 -0.1073589 -0.02383467
-0.9929336 -0.1162672 -0.02376545
-0.9918529 -0.1251665 -0.02369073
-0.9906925 -0.1340559 -0.02361051
-0.9894525 -0.1429347 -0.0235248
-0.9881331 -0.1518022 -0.0234336
-0.9867342 -0.1606578 -0.02333693
-0.9852561 -0.1695007 -0.02323479
-0.9836989 -0.1783303 -0.0231272
-0.9820625 -0.1871458 -0.02301416
-0.9803472 -0.1959466 -0.02289569
-0.9785532 -0.2047319 -0.02277179
-0.9766804 -0.2135011 -0.02264248
-0.9747291 -0.2222535 -0.02250777
-0.9726994 -0.2309883 -0.02236768
-0.9705914 -0.2397049 -0.02222221
-0.9684054 -0.2484026 -0.02207139
-0.9661414 -0.2570808 -0.02191522
-0.9637997 -0.2657386 -0.02175372
-0.9613803 -0.2743754 -0.0215869