# vtk DataFile Version 2.0
Written badly by Kevin Korner
ASCII
DATASET POLYDATA
POINTS 350 FLOAT
0 0 0
0.00286533 0 0
0.005730484 1.950043e-05 2.494072e-05
0.008595111 5.888637e-05 7.467386e-05
0.01145885 0.0001185336 0.0001490373
0.01432135 0.0001988084 0.0002478554
0.01718225 0.0003000672 0.0003709395
0.02004117 0.0004226562 0.0005180879
0.02289775 0.0005669116 0.0006890867
0.02575163 0.0007331589 0.0008837097
0.02860242 0.0009217129 0.001101719
0.03144977 0.001132877 0.001342866
0.03429329 0.001366946 0.00160689
0.03713261 0.001624199 0.00189352
0.03996737 0.001904909 0.002202476
0.04279719 0.002209333 0.002533467
0.0456217 0.002537721 0.002886192
0.04844054 0.002890307 0.003260344
0.05125332 0.003267317 0.003655603
0.05405969 0.003668964 0.004071645
0.05685928 0.004095448 0.004508135
0.05965172 0.004546961 0.004964732
0.06243667 0.00502368 0.005441089
0.06521376 0.005525772 0.00593685
0.06798265 0.006053391 0.006451655
0.07074297 0.006606683 0.006985136
0.07349438 0.007185778 0.007536922
0.07623655 0.007790798 0.008106634
0.07896914 0.008421854 0.008693891
0.0816918 0.009079042 0.009298306
0.08440422 0.009762452 0.00991949
0.08710606 0.01047216 0.01055705
0.08979701 0.01120823 0.01121058
0.09247675 0.01197072 0.01187969
0.09514497 0.01275968 0.01256397
0.09780137 0.01357513 0.01326303
0.1004457 0.01441711 0.01397644
0.1030775 0.01528563 0.01470381
0.1056967 0.01618069 0.01544472
0.1083029 0.01710229 0.01619877
0.1108958 0.01805041 0.01696553
0.1134752 0.01902504 0.01774461
0.1160408 0.02002613 0.01853559
0.1185923 0.02105366 0.01933805
0.1211296 0.02210756 0.02015159
0.1236522 0.02318779 0.02097579
0.1261601 0.02429427 0.02181025
0.128653 0.02542693 0.02265455
0.1311306 0.02658569 0.0235083
0.1335927 0.02777046 0.02437108
0.1360391 0.02898115 0.02524249
0.1384696 0.03021765 0.02612213
0.140884 0.03147985 0.02700961
0.1432821 0.03276764 0.02790451
0.1456637 0.03408088 0.02880646
0.1480286 0.03541946 0.02971505
0.1503767 0.03678324 0.0306299
0.1527077 0.03817207 0.03155063
0.1550214 0.03958581 0.03247684
0.1573178 0.04102431 0.03340817
0.1595967 0.04248741 0.03434423
0.1618579 0.04397495 0.03528466
0.1641012 0.04548677 0.03622909
0.1663266 0.04702268 0.03717714
0.1685339 0.04858252 0.03812846
0.1707229 0.05016611 0.0390827
0.1728935 0.05177327 0.04003949
0.1750457 0.0534038 0.0409985
0.1771792 0.05505752 0.04195937
0.1792941 0.05673423 0.04292177
0.1813901 0.05843374 0.04388536
0.1834672 0.06015584 0.0448498
0.1855253 0.06190034 0.04581478
0.1875642 0.06366703 0.04677996
0.189584 0.0654557 0.04774503
0.1915845 0.06726614 0.04870967
0.1935656 0.06909813 0.04967358
0.1955272 0.07095147 0.05063645
0.1974694 0.07282594 0.05159798
0.199392 0.07472131 0.05255786
0.2012949 0.07663737 0.05351582
0.2031781 0.0785739 0.05447156
0.2050416 0.08053067 0.0554248
0.2068852 0.08250746 0.05637526
0.208709 0.08450405 0.05732267
0.2105129 0.0865202 0.05826676
0.2122968 0.0885557 0.05920726
0.2140607 0.0906103 0.06014392
0.2158046 0.09268379 0.06107647
0.2175284 0.09477594 0.06200467
0.2192321 0.09688651 0.06292827
0.2209156 0.09901527 0.06384702
0.222579 0.101162 0.06476069
0.2242222 0.1033264 0.06566904
0.2258452 0.1055084 0.06657184
0.227448 0.1077076 0.06746887
0.2290305 0.1099239 0.06835991
0.2305928 0.1121569 0.06924473
0.2321348 0.1144066 0.07012312
0.2336565 0.1166725 0.07099487
0.2351579 0.1189546 0.07185979
0.2366389 0.1212525 0.07271765
0.2380997 0.1235661 0.07356828
0.2395401 0.1258952 0.07441147
0.2409603 0.1282393 0.07524703
0.24236 0.1305985 0.07607478
0.2437395 0.1329724 0.07689454
0.2450986 0.1353607 0.07770611
0.2464374 0.1377633 0.07850934
0.2477558 0.14018 0.07930405
0.249054 0.1426104 0.08009007
0.2503318 0.1450545 0.08086723
0.2515893 0.1475119 0.08163538
0.2528265 0.1499824 0.08239435
0.2540434 0.1524658 0.08314399
0.25524 0.1549619 0.08388415
0.2564163 0.1574704 0.08461469
0.2575723 0.1599912 0.08533545
0.2587081 0.1625239 0.08604629
0.2598236 0.1650685 0.08674709
0.2609188 0.1676246 0.08743769
0.2619938 0.170192 0.08811798
0.2630486 0.1727705 0.08878781
0.2640832 0.1753599 0.08944707
0.2650976 0.17796 0.09009563
0.2660919 0.1805706 0.09073338
0.2670659 0.1831913 0.09136018
0.2680198 0.1858221 0.09197593
0.2689535 0.1884627 0.09258052
0.2698671 0.1911129 0.09317384
0.2707606 0.1937724 0.09375578
0.271634 0.1964411 0.09432624
0.2724873 0.1991187 0.09488511
0.2733205 0.2018051 0.09543231
0.2741337 0.2044999 0.09596773
0.2749268 0.2072031 0.09649127
0.2756999 0.2099143 0.09700286
0.2764529 0.2126334 0.0975024
0.277186 0.2153601 0.09798981
0.277899 0.2180943 0.098465
0.2785921 0.2208358 0.0989279
0.2792652 0.2235842 0.09937843
0.2799184 0.2263395 0.0998165
0.2805516 0.2291014 0.1002421
0.2811649 0.2318697 0.100655
0.2817583 0.2346442 0.1010553
0.2823318 0.2374247 0.1014429
0.2828854 0.2402109 0.1018177
0.2834191 0.2430027 0.1021796
0.2839329 0.2457999 0.1025286
0.2844269 0.2486023 0.1028647
0.284901 0.2514096 0.1031877
0.2853553 0.2542216 0.1034977
0.2857898 0.2570382 0.1037945
0.2862045 0.2598592 0.1040782
0.2865993 0.2626843 0.1043486
0.2869744 0.2655133 0.1046058
0.2873296 0.268346 0.1048497
0.2876651 0.2711823 0.1050803
0.2879808 0.2740219 0.1052975
0.2882768 0.2768646 0.1055012
0.2885529 0.2797102 0.1056916
0.2888094 0.2825586 0.1058684
0.289046 0.2854094 0.1060318
0.289263 0.2882626 0.1061816
0.2894602 0.2911179 0.1063179
0.2896376 0.2939751 0.1064406
0.2897954 0.296834 0.1065498
0.2899334 0.2996944 0.1066453
0.2900517 0.3025561 0.1067272
0.2901502 0.3054189 0.1067955
0.2902291 0.3082826 0.1068501
0.2902882 0.3111471 0.1068911
0.2903277 0.314012 0.1069185
0.2903474 0.3168772 0.1069321
0.2903474 0.3197426 0.1069321
0.2903277 0.3226078 0.1069185
0.2902882 0.3254727 0.1068911
0.2902291 0.3283371 0.1068501
0.2901502 0.3312009 0.1067955
0.2900517 0.3340637 0.1067272
0.2899334 0.3369254 0.1066453
0.2897954 0.3397858 0.1065498
0.2896376 0.3426447 0.1064406
0.2894602 0.3455019 0.1063179
0.289263 0.3483572 0.1061816
0.289046 0.3512104 0.1060318
0.2888094 0.3540612 0.1058684
0.2885529 0.3569096 0.1056916
0.2882768 0.3597552 0.1055012
0.2879808 0.3625979 0.1052975
0.2876651 0.3654375 0.1050803
0.2873296 0.3682738 0.1048497
0.2869744 0.3711065 0.1046058
0.2865993 0.3739355 0.1043486
0.2862045 0.3767606 0.1040782
0.2857898 0.3795815 0.1037945
0.2853553 0.3823981 0.1034977
0.284901 0.3852102 0.1031877
0.2844269 0.3880175 0.1028647
0.2839329 0.3908198 0.1025286
0.2834191 0.393617 0.1021796
0.2828854 0.3964088 0.1018177
0.2823318 0.3991951 0.1014429
0.2817583 0.4019756 0.1010553
0.2811649 0.4047501 0.100655
0.2805516 0.4075184 0.1002421
0.2799184 0.4102802 0.0998165
0.2792652 0.4130355 0.09937843
0.2785921 0.415784 0.0989279
0.277899 0.4185254 0.098465
0.277186 0.4212596 0.09798981
0.2764529 0.4239864 0.0975024
0.2756999 0.4267055 0.09700286
0.2749268 0.4294167 0.09649127
0.2741337 0.4321198 0.09596773
0.2733205 0.4348147 0.09543231
0.2724873 0.437501 0.09488511
0.271634 0.4401787 0.09432624
0.2707606 0.4428473 0.09375578
0.2698671 0.4455069 0.09317384
0.2689535 0.448157 0.09258052
0.2680198 0.4507976 0.09197593
0.2670659 0.4534284 0.09136018
0.2660919 0.4560492 0.09073338
0.2650976 0.4586598 0.09009563
0.2640832 0.4612598 0.08944707
0.2630486 0.4638493 0.08878781
0.2619938 0.4664278 0.08811798
0.2609188 0.4689952 0.08743769
0.2598236 0.4715513 0.08674709
0.2587081 0.4740958 0.08604629
0.2575723 0.4766286 0.08533545
0.2564163 0.4791493 0.08461469
0.25524 0.4816579 0.08388415
0.2540434 0.484154 0.08314399
0.2528265 0.4866374 0.08239435
0.2515893 0.4891079 0.08163538
0.2503318 0.4915653 0.08086723
0.249054 0.4940093 0.08009007
0.2477558 0.4964398 0.07930405
0.2464374 0.4988564 0.07850934
0.2450986 0.5012591 0.07770611
0.2437395 0.5036474 0.07689454
0.24236 0.5060213 0.07607478
0.2409603 0.5083804 0.07524703
0.2395401 0.5107246 0.07441147
0.2380997 0.5130536 0.07356828
0.2366389 0.5153672 0.07271765
0.2351579 0.5176652 0.07185979
0.2336565 0.5199473 0.07099487
0.2321348 0.5222132 0.07012312
0.2305928 0.5244628 0.06924473
0.2290305 0.5266959 0.06835991
0.227448 0.5289122 0.06746887
0.2258452 0.5311114 0.06657184
0.2242222 0.5332933 0.06566904
0.222579 0.5354578 0.06476069
0.2209156 0.5376045 0.06384702
0.2192321 0.5397333 0.06292827
0.2175284 0.5418438 0.06200467
0.2158046 0.543936 0.06107647
0.2140607 0.5460095 0.06014392
0.2122968 0.5480641 0.05920726
0.2105129 0.5500996 0.05826676
0.208709 0.5521157 0.05732267
0.2068852 0.5541123 0.05637526
0.2050416 0.5560891 0.0554248
0.2031781 0.5580459 0.05447156
0.2012949 0.5599824 0.05351582
0.199392 0.5618985 0.05255786
0.1974694 0.5637938 0.05159798
0.1955272 0.5656683 0.05063645
0.1935656 0.5675216 0.04967358
0.1915845 0.5693536 0.04870967
0.189584 0.5711641 0.04774503
0.1875642 0.5729527 0.04677996
0.1855253 0.5747194 0.04581478
0.1834672 0.5764639 0.0448498
0.1813901 0.578186 0.04388536
0.1792941 0.5798855 0.04292177
0.1771792 0.5815623 0.04195937
0.1750457 0.583216 0.0409985
0.1728935 0.5848465 0.04003949
0.1707229 0.5864537 0.0390827
0.1685339 0.5880372 0.03812846
0.1663266 0.5895971 0.03717714
0.1641012 0.591133 0.03622909
0.1618579 0.5926448 0.03528466
0.1595967 0.5941324 0.03434423
0.1573178 0.5955955 0.03340817
0.1550214 0.597034 0.03247684
0.1527077 0.5984477 0.03155063
0.1503767 0.5998365 0.0306299
0.1480286 0.6012003 0.02971505
0.1456637 0.6025389 0.02880646
0.1432821 0.6038521 0.02790451
0.140884 0.6051399 0.02700961
0.1384696 0.6064021 0.02612213
0.1360391 0.6076386 0.02524249
0.1335927 0.6088493 0.02437108
0.1311306 0.6100341 0.0235083
0.128653 0.6111928 0.02265455
0.1261601 0.6123255 0.02181025
0.1236522 0.613432 0.02097579
0.1211296 0.6145122 0.02015159
0.1185923 0.6155661 0.01933805
0.1160408 0.6165936 0.01853559
0.1134752 0.6175947 0.01774461
0.1108958 0.6185694 0.01696553
0.1083029 0.6195175 0.01619877
0.1056967 0.6204391 0.01544472
0.1030775 0.6213341 0.01470381
0.1004457 0.6222027 0.01397644
0.09780137 0.6230446 0.01326303
0.09514497 0.6238601 0.01256397
0.09247675 0.6246491 0.01187969
0.08979701 0.6254115 0.01121058
0.08710606 0.6261476 0.01055705
0.08440422 0.6268573 0.00991949
0.0816918 0.6275407 0.009298306
0.07896914 0.6281979 0.008693891
0.07623655 0.628829 0.008106634
0.07349438 0.629434 0.007536922
0.07074297 0.6300131 0.006985136
0.06798265 0.6305664 0.006451655
0.06521376 0.631094 0.00593685
0.06243667 0.6315961 0.005441089
0.05965172 0.6320728 0.004964732
0.05685928 0.6325243 0.004508135
0.05405969 0.6329508 0.004071645
0.05125332 0.6333525 0.003655603
0.04844054 0.6337295 0.003260344
0.0456217 0.6340821 0.002886192
0.04279719 0.6344104 0.002533467
0.03996737 0.6347149 0.002202476
0.03713261 0.6349956 0.00189352
0.03429329 0.6352528 0.00160689
0.03144977 0.6354869 0.001342866
0.02860242 0.6356981 0.001101719
0.02575163 0.6358866 0.0008837097
0.02289775 0.6360529 0.0006890867
0.02004117 0.6361971 0.0005180879
0.01718225 0.6363197 0.0003709395
0.01432135 0.636421 0.0002478554
0.01145885 0.6365012 0.0001490373
0.008595111 0.6365609 7.467386e-05
0.005730484 0.6366003 2.494072e-05
0.00286533 0.6366198 0
0 0.6366198 0

LINES 349 1047
2 0 1
2 1 2
2 2 3
2 3 4
2 4 5
2 5 6
2 6 7
2 7 8
2 8 9
2 9 10
2 10 11
2 11 12
2 12 13
2 13 14
2 14 15
2 15 16
2 16 17
2 17 18
2 18 19
2 19 20
2 20 21
2 21 22
2 22 23
2 23 24
2 24 25
2 25 26
2 26 27
2 27 28
2 28 29
2 29 30
2 30 31
2 31 32
2 32 33
2 33 34
2 34 35
2 35 36
2 36 37
2 37 38
2 38 39
2 39 40
2 40 41
2 41 42
2 42 43
2 43 44
2 44 45
2 45 46
2 46 47
2 47 48
2 48 49
2 49 50
2 50 51
2 51 52
2 52 53
2 53 54
2 54 55
2 55 56
2 56 57
2 57 58
2 58 59
2 59 60
2 60 61
2 61 62
2 62 63
2 63 64
2 64 65
2 65 66
2 66 67
2 67 68
2 68 69
2 69 70
2 70 71
2 71 72
2 72 73
2 73 74
2 74 75
2 75 76
2 76 77
2 77 78
2 78 79
2 79 80
2 80 81
2 81 82
2 82 83
2 83 84
2 84 85
2 85 86
2 86 87
2 87 88
2 88 89
2 89 90
2 90 91
2 91 92
2 92 93
2 93 94
2 94 95
2 95 96
2 96 97
2 97 98
2 98 99
2 99 100
2 100 101
2 101 102
2 102 103
2 103 104
2 104 105
2 105 106
2 106 107
2 107 108
2 108 109
2 109 110
2 110 111
2 111 112
2 112 113
2 113 114
2 114 115
2 115 116
2 116 117
2 117 118
2 118 119
2 119 120
2 120 121
2 121 122
2 122 123
2 123 124
2 124 125
2 125 126
2 126 127
2 127 128
2 128 129
2 129 130
2 130 131
2 131 132
2 132 133
2 133 134
2 134 135
2 135 136
2 136 137
2 137 138
2 138 139
2 139 140
2 140 141
2 141 142
2 142 143
2 143 144
2 144 145
2 145 146
2 146 147
2 147 148
2 148 149
2 149 150
2 150 151
2 151 152
2 152 153
2 153 154
2 154 155
2 155 156
2 156 157
2 157 158
2 158 159
2 159 160
2 160 161
2 161 162
2 162 163
2 163 164
2 164 165
2 165 166
2 166 167
2 167 168
2 168 169
2 169 170
2 170 171
2 171 172
2 172 173
2 173 174
2 174 175
2 175 176
2 176 177
2 177 178
2 178 179
2 179 180
2 180 181
2 181 182
2 182 183
2 183 184
2 184 185
2 185 186
2 186 187
2 187 188
2 188 189
2 189 190
2 190 191
2 191 192
2 192 193
2 193 194
2 194 195
2 195 196
2 196 197
2 197 198
2 198 199
2 199 200
2 200 201
2 201 202
2 202 203
2 203 204
2 204 205
2 205 206
2 206 207
2 207 208
2 208 209
2 209 210
2 210 211
2 211 212
2 212 213
2 213 214
2 214 215
2 215 216
2 216 217
2 217 218
2 218 219
2 219 220
2 220 221
2 221 222
2 222 223
2 223 224
2 224 225
2 225 226
2 226 227
2 227 228
2 228 229
2 229 230
2 230 231
2 231 232
2 232 233
2 233 234
2 234 235
2 235 236
2 236 237
2 237 238
2 238 239
2 239 240
2 240 241
2 241 242
2 242 243
2 243 244
2 244 245
2 245 246
2 246 247
2 247 248
2 248 249
2 249 250
2 250 251
2 251 252
2 252 253
2 253 254
2 254 255
2 255 256
2 256 257
2 257 258
2 258 259
2 259 260
2 260 261
2 261 262
2 262 263
2 263 264
2 264 265
2 265 266
2 266 267
2 267 268
2 268 269
2 269 270
2 270 271
2 271 272
2 272 273
2 273 274
2 274 275
2 275 276
2 276 277
2 277 278
2 278 279
2 279 280
2 280 281
2 281 282
2 282 283
2 283 284
2 284 285
2 285 286
2 286 287
2 287 288
2 288 289
2 289 290
2 290 291
2 291 292
2 292 293
2 293 294
2 294 295
2 295 296
2 296 297
2 297 298
2 298 299
2 299 300
2 300 301
2 301 302
2 302 303
2 303 304
2 304 305
2 305 306
2 306 307
2 307 308
2 308 309
2 309 310
2 310 311
2 311 312
2 312 313
2 313 314
2 314 315
2 315 316
2 316 317
2 317 318
2 318 319
2 319 320
2 320 321
2 321 322
2 322 323
2 323 324
2 324 325
2 325 326
2 326 327
2 327 328
2 328 329
2 329 330
2 330 331
2 331 332
2 332 333
2 333 334
2 334 335
2 335 336
2 336 337
2 337 338
2 338 339
2 339 340
2 340 341
2 341 342
2 342 343
2 343 344
2 344 345
2 345 346
2 346 347
2 347 348
2 348 349


POINT_DATA 350
SCALARS a FLOAT 1
LOOKUP_TABLE default
0.0005894628
0.0005894628
0.0005894628
0.0005894628
0.0005894628
0.0005894628
0.0005894628
0.0005894628
0.0005894628
0.0005894628
0.0005894628
0.0005894628
0.0005894628
0.0005894628
0.0005894628
0.0005894628
0.0005894628
0.0005894628
0.0005894628
0.0005894628
0.0005894628
0.0005894628
0.0005894628
0.0005894628
0.0005894628
0.0005894628
0.0005894628
0.0005894628
0.0005894628
0.0005894628
0.0005894628
0.0005894628
0.0005894628
0.0005894628
0.0005894628
0.0005894628
0.0005894628
0.0005894628
0.0005894628
0.0005894628
0.0005894628
0.0005894628
0.0005894628
0.0005894628
0.0005894628
0.0005894628
0.0005894628
0.0005894628
0.0005894628
0.0005894628
0.0005894628
0.0005894628
0.0005894628
0.0005894628
0.0005894628
0.0005894628
0.0005894628
0.0005894628
0.0005894628
0.0005894628
0.0005894628
0.0005894628
0.0005894628
0.0005894628
0.0005894628
0.0005894628
0.0005894628
0.0005894628
0.0005894628
0.0005894628
0.0005894628
0.0005894628
0.0005894628
0.0005894628
0.0005894628
0.0005894628
0.0005894628
0.0005894628
0.0005894628
0.0005894628
0.0005894628
0.0005894628
0.0005894628
0.0005894628
0.0005894628
0.0005894628
0.0005894628
0.0005894628
0.0005894628
0.0005894628
0.0005894628
0.0005894628
0.0005894628
0.0005894628
0.0005894628
0.0005894628
0.0005894628
0.0005894628
0.0005894628
0.0005894628
0.0005894628
0.0005894628
0.0005894628
0.0005894628
0.0005894628
0.0005894628
0.0005894628
0.0005894628
0.0005894628
0.0005894628
0.0005894628
0.0005894628
0.0005894628
0.0005894628
0.0005894628
0.0005894628
0.0005894628
0.0005894628
0.0005894628
0.0005894628
0.0005894628
0.0005894628
0.0005894628
0.0005894628
0.0005894628
0.0005894628
0.0005894628
0.0005894628
0.0005894628
0.0005894628
0.0005894628
0.0005894628
0.0005894628
0.0005894628
0.0005894628
0.0005894628
0.0005894628
0.0005894628
0.0005894628
0.0005894628
0.0005894628
0.0005894628
0.0005894628
0.0005894628
0.0005894628
0.0005894628
0.0005894628
0.0005894628
0.0005894628
0.0005894628
0.0005894628
0.0005894628
0.0005894628
0.0005894628
0.0005894628
0.0005894628
0.0005894628
0.0005894628
0.0005894628
0.0005894628
0.0005894628
0.0005894628
0.0005894628
0.0005894628
0.0005894628
0.0005894628
0.0005894628
0.0005894628
0.0005894628
0.0005894628
0.0005894628
0.0005894628
0.0005894628
0.0005894628
0.0005894628
0.0005894628
0.0005894628
0.0005894628
0.0005894628
0.0005894628
0.0005894628
0.0005894628
0.0005894628
0.0005894628
0.0005894628
0.0005894628
0.0005894628
0.0005894628
0.0005894628
0.0005894628
0.0005894628
0.0005894628
0.0005894628
0.0005894628
0.0005894628
0.0005894628
0.0005894628
0.0005894628
0.0005894628
0.0005894628
0.0005894628
0.0005894628
0.0005894628
0.0005894628
0.0005894628
0.0005894628
0.0005894628
0.0005894628
0.0005894628
0.0005894628
0.0005894628
0.0005894628
0.0005894628
0.0005894628
0.0005894628
0.0005894628
0.0005894628
0.0005894628
0.0005894628
0.0005894628
0.0005894628
0.0005894628
0.0005894628
0.0005894628
0.0005894628
0.0005894628
0.0005894628
0.0005894628
0.0005894628
0.0005894628
0.0005894628
0.0005894628
0.0005894628
0.0005894628
0.0005894628
0.0005894628
0.0005894628
0.0005894628
0.0005894628
0.0005894628
0.0005894628
0.0005894628
0.0005894628
0.0005894628
0.0005894628
0.0005894628
0.0005894628
0.0005894628
0.0005894628
0.0005894628
0.0005894628
0.0005894628
0.0005894628
0.0005894628
0.0005894628
0.0005894628
0.0005894628
0.0005894628
0.0005894628
0.0005894628
0.0005894628
0.0005894628
0.0005894628
0.0005894628
0.0005894628
0.0005894628
0.0005894628
0.0005894628
0.0005894628
0.0005894628
0.0005894628
0.0005894628
0.0005894628
0.0005894628
0.0005894628
0.0005894628
0.0005894628
0.0005894628
0.0005894628
0.0005894628
0.0005894628
0.0005894628
0.0005894628
0.0005894628
0.0005894628
0.0005894628
0.0005894628
0.0005894628
0.0005894628
0.0005894628
0.0005894628
0.0005894628
0.0005894628
0.0005894628
0.0005894628
0.0005894628
0.0005894628
0.0005894628
0.0005894628
0.0005894628
0.0005894628
0.0005894628
0.0005894628
0.0005894628
0.0005894628
0.0005894628
0.0005894628
0.0005894628
0.0005894628
0.0005894628
0.0005894628
0.0005894628
0.0005894628
0.0005894628
0.0005894628
0.0005894628
0.0005894628
0.0005894628
0.0005894628
0.0005894628
0.0005894628
0.0005894628
0.0005894628
0.0005894628
0.0005894628
0.0005894628
0.0005894628
0.0005894628
0.0005894628
0.0005894628
0.0005894628
0.0005894628
0.0005894628
0.0005894628
0.0005894628
0.0005894628
0.0005894628
0.0005894628
0.0005894628
0.0005894628
0.0005894628
0.0005894628
0.0005894628
0.0005894628
0.0005894628
0.0005894628
0.0005894628
0.0005894628
0.0005894628
0.0005894628


SCALARS b FLOAT 1
LOOKUP_TABLE default
0.02357851
0.02357851
0.02357851
0.02357851
0.02357851
0.02357851
0.02357851
0.02357851
0.02357851
0.02357851
0.02357851
0.02357851
0.02357851
0.02357851
0.02357851
0.02357851
0.02357851
0.02357851
0.02357851
0.02357851
0.02357851
0.02357851
0.02357851
0.02357851
0.02357851
0.02357851
0.02357851
0.02357851
0.02357851
0.02357851
0.02357851
0.02357851
0.02357851
0.02357851
0.02357851
0.02357851
0.02357851
0.02357851
0.02357851
0.02357851
0.02357851
0.02357851
0.02357851
0.02357851
0.02357851
0.02357851
0.02357851
0.02357851
0.02357851
0.02357851
0.02357851
0.02357851
0.02357851
0.02357851
0.02357851
0.02357851
0.02357851
0.02357851
0.02357851
0.02357851
0.02357851
0.02357851
0.02357851
0.02357851
0.02357851
0.02357851
0.02357851
0.02357851
0.02357851
0.02357851
0.02357851
0.02357851
0.02357851
0.02357851
0.02357851
0.02357851
0.02357851
0.02357851
0.02357851
0.02357851
0.02357851
0.02357851
0.02357851
0.02357851
0.02357851
0.02357851
0.02357851
0.02357851
0.02357851
0.02357851
0.02357851
0.02357851
0.02357851
0.02357851
0.02357851
0.02357851
0.02357851
0.02357851
0.02357851
0.02357851
0.02357851
0.02357851
0.02357851
0.02357851
0.02357851
0.02357851
0.02357851
0.02357851
0.02357851
0.02357851
0.02357851
0.02357851
0.02357851
0.02357851
0.02357851
0.02357851
0.02357851
0.02357851
0.02357851
0.02357851
0.02357851
0.02357851
0.02357851
0.02357851
0.02357851
0.02357851
0.02357851
0.02357851
0.02357851
0.02357851
0.02357851
0.02357851
0.02357851
0.02357851
0.02357851
0.02357851
0.02357851
0.02357851
0.02357851
0.02357851
0.02357851
0.02357851
0.02357851
0.02357851
0.02357851
0.02357851
0.02357851
0.02357851
0.02357851
0.02357851
0.02357851
0.02357851
0.02357851
0.02357851
0.02357851
0.02357851
0.02357851
0.02357851
0.02357851
0.02357851
0.02357851
0.02357851
0.02357851
0.02357851
0.02357851
0.02357851
0.02357851
0.02357851
0.02357851
0.02357851
0.02357851
0.02357851
0.02357851
0.02357851
0.02357851
0.02357851
0.02357851
0.02357851
0.02357851
0.02357851
0.02357851
0.02357851
0.02357851
0.02357851
0.02357851
0.02357851
0.02357851
0.02357851
0.02357851
0.02357851
0.02357851
0.02357851
0.02357851
0.02357851
0.02357851
0.02357851
0.02357851
0.02357851
0.02357851
0.02357851
0.02357851
0.02357851
0.02357851
0.02357851
0.02357851
0.02357851
0.02357851
0.02357851
0.02357851
0.02357851
0.02357851
0.02357851
0.02357851
0.02357851
0.02357851
0.02357851
0.02357851
0.02357851
0.02357851
0.02357851
0.02357851
0.02357851
0.02357851
0.02357851
0.02357851
0.02357851
0.02357851
0.02357851
0.02357851
0.02357851
0.02357851
0.02357851
0.02357851
0.02357851
0.02357851
0.02357851
0.02357851
0.02357851
0.02357851
0.02357851
0.02357851
0.02357851
0.02357851
0.02357851
0.02357851
0.02357851
0.02357851
0.02357851
0.02357851
0.02357851
0.02357851
0.02357851
0.02357851
0.02357851
0.02357851
0.02357851
0.02357851
0.02357851
0.02357851
0.02357851
0.02357851
0.02357851
0.02357851
0.02357851
0.02357851
0.02357851
0.02357851
0.02357851
0.02357851
0.02357851
0.02357851
0.02357851
0.02357851
0.02357851
0.02357851
0.02357851
0.02357851
0.02357851
0.02357851
0.02357851
0.02357851
0.02357851
0.02357851
0.02357851
0.02357851
0.02357851
0.02357851
0.02357851
0.02357851
0.02357851
0.02357851
0.02357851
0.02357851
0.02357851
0.02357851
0.02357851
0.02357851
0.02357851
0.02357851
0.02357851
0.02357851
0.02357851
0.02357851
0.02357851
0.02357851
0.02357851
0.02357851
0.02357851
0.02357851
0.02357851
0.02357851
0.02357851
0.02357851
0.02357851
0.02357851
0.02357851
0.02357851
0.02357851
0.02357851
0.02357851
0.02357851
0.02357851
0.02357851
0.02357851
0.02357851
0.02357851
0.02357851
0.02357851
0.02357851
0.02357851
0.02357851
0.02357851
0.02357851
0.02357851
0.02357851
0.02357851
0.02357851
0.02357851
0.02357851
0.02357851
0.02357851
0.02357851
0.02357851
0.02357851
0.02357851
0.02357851
0.02357851
0.02357851
0.02357851
0.02357851


VECTORS d1 FLOAT
0 0.6104217 0.7920766
-0.0110489 0.6201957 0.7843693
-0.02213908 0.6297573 0.7764764
-0.03326476 0.6391038 0.7684008
-0.04442024 0.6482326 0.7601456
-0.05559988 0.6571412 0.7517141
-0.06679811 0.6658275 0.7431095
-0.07800941 0.6742892 0.7343355
-0.08922835 0.6825245 0.7253955
-0.1004496 0.6905316 0.7162933
-0.1116678 0.6983088 0.7070326
-0.1228778 0.7058547 0.6976175
-0.1340746 0.713168 0.6880519
-0.145253 0.7202477 0.6783398
-0.1564083 0.7270926 0.6684854
-0.1675355 0.7337021 0.658493
-0.17863 0.7400756 0.6483668
-0.1896872 0.7462124 0.6381112
-0.2007026 0.7521123 0.6277305
-0.2116718 0.757775 0.6172293
-0.2225904 0.7632007 0.6066121
-0.2334545 0.7683893 0.5958833
-0.2442599 0.7733411 0.5850475
-0.2550026 0.7780566 0.5741094
-0.265679 0.7825363 0.5630734
-0.2762853 0.7867807 0.5519443
-0.2868179 0.7907909 0.5407267
-0.2972735 0.7945675 0.5294251
-0.3076487 0.7981118 0.5180442
-0.3179403 0.8014249 0.5065887
-0.3281452 0.8045081 0.4950631
-0.3382606 0.8073627 0.483472
-0.3482836 0.8099903 0.47182
-0.3582116 0.8123926 0.4601117
-0.3680419 0.8145711 0.4483516
-0.3777721 0.8165277 0.4365441
-0.3873999 0.8182644 0.4246937
-0.3969231 0.819783 0.4128048
-0.4063397 0.8210857 0.4008819
-0.4156476 0.8221747 0.3889291
-0.4248452 0.823052 0.3769508
-0.4339305 0.8237201 0.3649513
-0.4429021 0.8241813 0.3529346
-0.4517585 0.8244381 0.3409049
-0.4604983 0.8244928 0.3288662
-0.4691202 0.8243481 0.3168225
-0.4776231 0.8240065 0.3047778
-0.486006 0.8234706 0.2927359
-0.494268 0.8227432 0.2807005
-0.5024081 0.821827 0.2686755
-0.5104257 0.8207247 0.2566645
-0.5183202 0.819439 0.244671
-0.526091 0.8179729 0.2326985
-0.5337377 0.8163291 0.2207506
-0.54126 0.8145106 0.2088305
-0.5486576 0.8125201 0.1969416
-0.5559303 0.8103606 0.185087
-0.5630782 0.808035 0.1732699
-0.5701011 0.8055461 0.1614933
-0.5769993 0.802897 0.1497603
-0.5837728 0.8000906 0.1380737
-0.590422 0.7971297 0.1264364
-0.596947 0.7940173 0.1148511
-0.6033484 0.7907563 0.1033204
-0.6096266 0.7873496 0.09184712
-0.6157822 0.7838002 0.08043361
-0.6218156 0.7801109 0.06908237
-0.6277277 0.7762845 0.05779578
-0.633519 0.772324 0.04657614
-0.6391904 0.7682322 0.03542568
-0.6447426 0.7640119 0.02434656
-0.6501767 0.7596659 0.01334086
-0.6554934 0.755197 0.002410597
-0.6606938 0.750608 -0.008442283
-0.6657789 0.7459016 -0.0192159
-0.6707497 0.7410805 -0.02990845
-0.6756075 0.7361473 -0.04051819
-0.6803532 0.7311047 -0.05104343
-0.6849881 0.7259554 -0.06148258
-0.6895134 0.7207019 -0.07183406
-0.6939303 0.7153467 -0.08209641
-0.6982402 0.7098924 -0.09226819
-0.7024443 0.7043415 -0.102348
-0.7065439 0.6986964 -0.1123346
-0.7105405 0.6929595 -0.1222267
-0.7144354 0.6871331 -0.1320231
-0.71823 0.6812197 -0.1417227
-0.7219257 0.6752216 -0.1513243
-0.725524 0.6691409 -0.1608269
-0.7290264 0.66298 -0.1702296
-0.7324342 0.6567409 -0.1795314
-0.735749 0.6504259 -0.1887314
-0.7389723 0.6440371 -0.1978288
-0.7421055 0.6375765 -0.2068227
-0.7451503 0.6310461 -0.2157125
-0.748108 0.624448 -0.2244973
-0.7509803 0.6177841 -0.2331765
-0.7537687 0.6110563 -0.2417496
-0.7564747 0.6042665 -0.2502158
-0.7590999 0.5974166 -0.2585747
-0.7616457 0.5905082 -0.2668256
-0.7641137 0.5835432 -0.2749682
-0.7665055 0.5765234 -0.283002
-0.7688226 0.5694503 -0.2909265
-0.7710665 0.5623256 -0.2987414
-0.7732387 0.5551509 -0.3064462
-0.7753408 0.5479279 -0.3140408
-0.7773743 0.540658 -0.3215246
-0.7793407 0.5333427 -0.3288976
-0.7812415 0.5259835 -0.3361594
-0.7830781 0.5185818 -0.3433098
-0.7848521 0.511139 -0.3503486
-0.7865649 0.5036564 -0.3572757
-0.7882179 0.4961355 -0.3640908
-0.7898127 0.4885774 -0.3707937
-0.7913507 0.4809834 -0.3773845
-0.7928332 0.4733547 -0.383863
-0.7942617 0.4656926 -0.3902291
-0.7956376 0.4579982 -0.3964827
-0.7969622 0.4502725 -0.4026238
-0.7982369 0.4425168 -0.4086524
-0.799463 0.434732 -0.4145683
-0.800642 0.4269193 -0.4203717
-0.801775 0.4190796 -0.4260625
-0.8028633 0.4112138 -0.4316406
-0.8039083 0.403323 -0.4371063
-0.8049113 0.3954081 -0.4424594
-0.8058733 0.38747 -0.4477
-0.8067956 0.3795095 -0.4528282
-0.8076795 0.3715274 -0.457844
-0.8085261 0.3635247 -0.4627475
-0.8093366 0.3555021 -0.4675387
-0.8101121 0.3474604 -0.4722178
-0.8108536 0.3394004 -0.4767849
-0.8115623 0.3313227 -0.4812399
-0.8122393 0.323228 -0.4855831
-0.8128856 0.3151172 -0.4898144
-0.8135022 0.3069907 -0.4939341
-0.8140901 0.2988494 -0.4979422
-0.8146502 0.2906937 -0.5018388
-0.8151836 0.2825244 -0.505624
-0.8156912 0.2743419 -0.509298
-0.8161738 0.2661469 -0.5128608
-0.8166323 0.25794 -0.5163126
-0.8170676 0.2497216 -0.5196534
-0.8174805 0.2414923 -0.5228834
-0.8178718 0.2332526 -0.5260027
-0.8182424 0.225003 -0.5290114
-0.8185928 0.2167439 -0.5319097
-0.8189239 0.2084759 -0.5346975
-0.8192364 0.2001994 -0.5373751
-0.8195309 0.1919148 -0.5399425
-0.819808 0.1836225 -0.5423998
-0.8200685 0.175323 -0.5447472
-0.8203129 0.1670166 -0.5469847
-0.8205417 0.1587038 -0.5491124
-0.8207555 0.150385 -0.5511304
-0.8209548 0.1420604 -0.5530389
-0.8211402 0.1337306 -0.5548378
-0.821312 0.1253957 -0.5565273
-0.8214706 0.1170563 -0.5581074
-0.8216166 0.1087126 -0.5595782
-0.8217502 0.1003649 -0.5609398
-0.8218719 0.09201367 -0.5621922
-0.8219819 0.0836591 -0.5633355
-0.8220805 0.07530157 -0.5643698
-0.8221681 0.06694136 -0.5652951
-0.8222448 0.05857881 -0.5661114
-0.8223108 0.05021419 -0.5668188
-0.8223663 0.04184783 -0.5674173
-0.8224116 0.03348 -0.5679069
-0.8224467 0.02511102 -0.5682877
-0.8224716 0.01674116 -0.5685597
-0.8224866 0.008370725 -0.5687229
-0.8224916 -1.398881e-14 -0.5687773
-0.8224866 -0.008370725 -0.5687229
-0.8224716 -0.01674116 -0.5685597
-0.8224467 -0.02511102 -0.5682877
-0.8224116 -0.03348 -0.5679069
-0.8223663 -0.04184783 -0.5674173
-0.8223108 -0.05021419 -0.5668188
-0.8222448 -0.05857881 -0.5661114
-0.8221681 -0.06694136 -0.5652951
-0.8220805 -0.07530157 -0.5643698
-0.8219819 -0.0836591 -0.5633355
-0.8218719 -0.09201367 -0.5621922
-0.8217502 -0.1003649 -0.5609398
-0.8216166 -0.1087126 -0.5595782
-0.8214706 -0.1170563 -0.5581074
-0.821312 -0.1253957 -0.5565273
-0.8211402 -0.1337306 -0.5548378
-0.8209548 -0.1420604 -0.5530389
-0.8207555 -0.150385 -0.5511304
-0.8205417 -0.1587038 -0.5491124
-0.8203129 -0.1670166 -0.5469847
-0.8200685 -0.175323 -0.5447472
-0.819808 -0.1836225 -0.5423998
-0.8195309 -0.1919148 -0.5399425
-0.8192364 -0.2001994 -0.5373751
-0.8189239 -0.2084759 -0.5346975
-0.8185928 -0.2167439 -0.5319097
-0.8182424 -0.225003 -0.5290114
-0.8178718 -0.2332526 -0.5260027
-0.8174805 -0.2414923 -0.5228834
-0.8170676 -0.2497216 -0.5196534
-0.8166323 -0.25794 -0.5163126
-0.8161738 -0.2661469 -0.5128608
-0.8156912 -0.2743419 -0.509298
-0.8151836 -0.2825244 -0.505624
-0.8146502 -0.2906937 -0.5018388
-0.8140901 -0.2988494 -0.4979422
-0.8135022 -0.3069907 -0.4939341
-0.8128856 -0.3151172 -0.4898144
-0.8122393 -0.323228 -0.4855831
-0.8115623 -0.3313227 -0.4812399
-0.8108536 -0.3394004 -0.4767849
-0.8101121 -0.3474604 -0.4722178
-0.8093366 -0.3555021 -0.4675387
-0.8085261 -0.3635247 -0.4627475
-0.8076795 -0.3715274 -0.457844
-0.8067956 -0.3795095 -0.4528282
-0.8058733 -0.38747 -0.4477
-0.8049113 -0.3954081 -0.4424594
-0.8039083 -0.403323 -0.4371063
-0.8028633 -0.4112138 -0.4316406
-0.801775 -0.4190796 -0.4260625
-0.800642 -0.4269193 -0.4203717