# vtk DataFile Version 2.0
Written badly by Kevin Korner
ASCII
DATASET POLYDATA
POINTS 350 FLOAT
0 0 0
0.00286533 0 0
0.005730539 2.618282e-05 4.899974e-07
0.00859539 7.854181e-05 1.463308e-06
0.01145964 0.0001570681 2.913238e-06
0.01432306 0.0002617508 4.83308e-06
0.0171854 0.0003925765 7.216122e-06
0.02004643 0.00054953 1.005564e-05
0.0229059 0.0007325936 1.33449e-05
0.02576358 0.0009417477 1.707717e-05
0.02861924 0.00117697 2.12457e-05
0.03147263 0.001438238 2.584373e-05
0.03432351 0.001725523 3.086453e-05
0.03717166 0.002038799 3.630132e-05
0.04001683 0.002378034 4.214734e-05
0.04285879 0.002743196 4.839583e-05
0.0456973 0.00313425 5.504003e-05
0.04853213 0.00355116 6.207315e-05
0.05136304 0.003993885 6.948844e-05
0.0541898 0.004462386 7.727912e-05
0.05701217 0.004956618 8.543843e-05
0.05982992 0.005476536 9.39596e-05
0.06264282 0.006022094 0.0001028359
0.06545063 0.006593241 0.0001120605
0.06825313 0.007189925 0.0001216267
0.07105008 0.007812093 0.0001315277
0.07384125 0.00845969 0.0001417568
0.07662641 0.009132656 0.0001523073
0.07940533 0.009830933 0.0001631724
0.08217779 0.01055446 0.0001743454
0.08494354 0.01130317 0.0001858195
0.08770238 0.01207699 0.0001975881
0.09045406 0.01287587 0.0002096445
0.09319837 0.01369973 0.000221982
0.09593507 0.01454849 0.0002345939
0.09866395 0.01542209 0.0002474736
0.1013848 0.01632044 0.0002606143
0.1040973 0.01724347 0.0002740096
0.1068014 0.0181911 0.0002876526
0.1094967 0.01916325 0.0003015369
0.1121831 0.02015983 0.0003156558
0.1148604 0.02118075 0.0003300028
0.1175282 0.02222594 0.0003445713
0.1201865 0.02329529 0.0003593547
0.122835 0.02438871 0.0003743466
0.1254734 0.02550612 0.0003895404
0.1281016 0.02664742 0.0004049296
0.1307193 0.0278125 0.0004205079
0.1333263 0.02900127 0.0004362686
0.1359225 0.03021364 0.0004522055
0.1385075 0.03144948 0.000468312
0.1410813 0.0327087 0.0004845819
0.1436435 0.0339912 0.0005010088
0.146194 0.03529686 0.0005175863
0.1487326 0.03662557 0.0005343081
0.151259 0.03797722 0.000551168
0.1537731 0.03935169 0.0005681597
0.1562747 0.04074888 0.000585277
0.1587635 0.04216865 0.0006025136
0.1612393 0.0436109 0.0006198634
0.163702 0.0450755 0.0006373202
0.1661513 0.04656232 0.000654878
0.168587 0.04807124 0.0006725306
0.1710091 0.04960214 0.000690272
0.1734171 0.05115488 0.0007080962
0.1758111 0.05272934 0.0007259971
0.1781906 0.05432539 0.0007439688
0.1805557 0.05594288 0.0007620054
0.182906 0.05758169 0.000780101
0.1852415 0.05924167 0.0007982497
0.1875618 0.0609227 0.0008164457
0.1898668 0.06262462 0.0008346831
0.1921564 0.0643473 0.0008529563
0.1944303 0.0660906 0.0008712595
0.1966884 0.06785436 0.000889587
0.1989305 0.06963845 0.0009079332
0.2011563 0.07144271 0.0009262924
0.2033658 0.07326699 0.0009446591
0.2055587 0.07511114 0.0009630278
0.2077349 0.07697502 0.0009813929
0.2098942 0.07885845 0.0009997491
0.2120363 0.0807613 0.001018091
0.2141613 0.0826834 0.001036413
0.2162688 0.08462459 0.001054709
0.2183587 0.08658471 0.001072976
0.2204308 0.08856361 0.001091207
0.222485 0.09056111 0.001109396
0.2245211 0.09257705 0.00112754
0.226539 0.09461127 0.001145633
0.2285384 0.09666359 0.001163669
0.2305193 0.09873386 0.001181644
0.2324814 0.1008219 0.001199553
0.2344246 0.1029275 0.001217391
0.2363488 0.1050506 0.001235153
0.2382538 0.1071909 0.001252833
0.2401394 0.1093483 0.001270428
0.2420055 0.1115225 0.001287933
0.2438519 0.1137135 0.001305342
0.2456786 0.1159211 0.001322651
0.2474852 0.118145 0.001339856
0.2492718 0.120385 0.001356952
0.2510382 0.1226411 0.001373935
0.2527842 0.124913 0.001390799
0.2545096 0.1272004 0.001407541
0.2562144 0.1295034 0.001424157
0.2578985 0.1318215 0.001440641
0.2595615 0.1341548 0.00145699
0.2612036 0.1365029 0.001473199
0.2628244 0.1388657 0.001489265
0.264424 0.1412429 0.001505183
0.266002 0.1436345 0.001520949
0.2675585 0.1460401 0.001536559
0.2690934 0.1484597 0.001552009
0.2706064 0.1508929 0.001567296
0.2720974 0.1533397 0.001582416
0.2735665 0.1557997 0.001597364
0.2750133 0.1582729 0.001612137
0.2764379 0.1607589 0.001626732
0.27784 0.1632577 0.001641144
0.2792197 0.165769 0.00165537
0.2805767 0.1682926 0.001669408
0.281911 0.1708282 0.001683252
0.2832225 0.1733758 0.0016969
0.284511 0.175935 0.001710349
0.2857765 0.1785057 0.001723596
0.2870189 0.1810876 0.001736636
0.288238 0.1836806 0.001749467
0.2894338 0.1862845 0.001762086
0.2906061 0.188899 0.00177449
0.2917549 0.1915239 0.001786676
0.2928802 0.194159 0.00179864
0.2939817 0.1968041 0.001810381
0.2950594 0.199459 0.001821895
0.2961133 0.2021235 0.00183318
0.2971432 0.2047973 0.001844232
0.298149 0.2074803 0.001855049
0.2991308 0.2101721 0.00186563
0.3000883 0.2128727 0.00187597
0.3010216 0.2155818 0.001886068
0.3019305 0.2182991 0.001895922
0.302815 0.2210245 0.001905528
0.303675 0.2237577 0.001914886
0.3045105 0.2264985 0.001923992
0.3053213 0.2292467 0.001932844
0.3061075 0.232002 0.001941441
0.3068689 0.2347643 0.001949781
0.3076055 0.2375333 0.001957861
0.3083173 0.2403089 0.001965679
0.3090041 0.2430906 0.001973235
0.3096659 0.2458785 0.001980526
0.3103028 0.2486721 0.00198755
0.3109145 0.2514714 0.001994305
0.3115011 0.254276 0.002000791
0.3120626 0.2570858 0.002007006
0.3125988 0.2599005 0.002012948
0.3131097 0.2627199 0.002018616
0.3135954 0.2655438 0.002024009
0.3140557 0.2683719 0.002029125
0.3144907 0.271204 0.002033963
0.3149002 0.2740399 0.002038522
0.3152844 0.2768794 0.002042802
0.315643 0.2797222 0.0020468
0.3159761 0.2825681 0.002050517
0.3162837 0.2854168 0.002053951
0.3165658 0.2882682 0.002057102
0.3168223 0.2911221 0.002059969
0.3170532 0.2939781 0.002062551
0.3172585 0.296836 0.002064847
0.3174382 0.2996957 0.002066858
0.3175922 0.3025569 0.002068582
0.3177206 0.3054194 0.002070019
0.3178233 0.3082828 0.002071169
0.3179003 0.3111471 0.002072032
0.3179517 0.314012 0.002072608
0.3179773 0.3168772 0.002072896
0.3179773 0.3197426 0.002072896
0.3179517 0.3226078 0.002072608
0.3179003 0.3254726 0.002072032
0.3178233 0.3283369 0.002071169
0.3177206 0.3312004 0.002070019
0.3175922 0.3340629 0.002068582
0.3174382 0.3369241 0.002066858
0.3172585 0.3397837 0.002064847
0.3170532 0.3426417 0.002062551
0.3168223 0.3454977 0.002059969
0.3165658 0.3483515 0.002057102
0.3162837 0.351203 0.002053951
0.3159761 0.3540517 0.002050517
0.315643 0.3568976 0.0020468
0.3152844 0.3597404 0.002042802
0.3149002 0.3625799 0.002038522
0.3144907 0.3654158 0.002033963
0.3140557 0.3682479 0.002029125
0.3135954 0.371076 0.002024009
0.3131097 0.3738999 0.002018616
0.3125988 0.3767193 0.002012948
0.3120626 0.379534 0.002007006
0.3115011 0.3823437 0.002000791
0.3109145 0.3851484 0.001994305
0.3103028 0.3879476 0.00198755
0.3096659 0.3907413 0.001980526
0.3090041 0.3935291 0.001973235
0.3083173 0.3963109 0.001965679
0.3076055 0.3990864 0.001957861
0.3068689 0.4018554 0.001949781
0.3061075 0.4046177 0.001941441
0.3053213 0.4073731 0.001932844
0.3045105 0.4101213 0.001923992
0.303675 0.4128621 0.001914886
0.302815 0.4155953 0.001905528
0.3019305 0.4183207 0.001895922
0.3010216 0.421038 0.001886068
0.3000883 0.4237471 0.00187597
0.2991308 0.4264476 0.00186563
0.298149 0.4291395 0.001855049
0.2971432 0.4318225 0.001844232
0.2961133 0.4344963 0.00183318
0.2950594 0.4371608 0.001821895
0.2939817 0.4398157 0.001810381
0.2928802 0.4424608 0.00179864
0.2917549 0.4450959 0.001786676
0.2906061 0.4477208 0.00177449
0.2894338 0.4503353 0.001762086
0.288238 0.4529391 0.001749467
0.2870189 0.4555321 0.001736636
0.2857765 0.4581141 0.001723596
0.284511 0.4606848 0.001710349
0.2832225 0.463244 0.0016969
0.281911 0.4657916 0.001683252
0.2805767 0.4683272 0.001669408
0.2792197 0.4708508 0.00165537
0.27784 0.4733621 0.001641144
0.2764379 0.4758608 0.001626732
0.2750133 0.4783469 0.001612137
0.2735665 0.4808201 0.001597364
0.2720974 0.4832801 0.001582416
0.2706064 0.4857269 0.001567296
0.2690934 0.4881601 0.001552009
0.2675585 0.4905797 0.001536559
0.266002 0.4929853 0.001520949
0.264424 0.4953769 0.001505183
0.2628244 0.4977541 0.001489265
0.2612036 0.5001169 0.001473199
0.2595615 0.502465 0.00145699
0.2578985 0.5047982 0.001440641
0.2562144 0.5071164 0.001424157
0.2545096 0.5094193 0.001407541
0.2527842 0.5117068 0.001390799
0.2510382 0.5139787 0.001373935
0.2492718 0.5162348 0.001356952
0.2474852 0.5184748 0.001339856
0.2456786 0.5206987 0.001322651
0.2438519 0.5229062 0.001305342
0.2420055 0.5250972 0.001287933
0.2401394 0.5272715 0.001270428
0.2382538 0.5294289 0.001252833
0.2363488 0.5315692 0.001235153
0.2344246 0.5336923 0.001217391
0.2324814 0.5357979 0.001199553
0.2305193 0.5378859 0.001181644
0.2285384 0.5399562 0.001163669
0.226539 0.5420085 0.001145633
0.2245211 0.5440427 0.00112754
0.222485 0.5460587 0.001109396
0.2204308 0.5480562 0.001091207
0.2183587 0.5500351 0.001072976
0.2162688 0.5519952 0.001054709
0.2141613 0.5539364 0.001036413
0.2120363 0.5558585 0.001018091
0.2098942 0.5577613 0.0009997491
0.2077349 0.5596448 0.0009813929
0.2055587 0.5615086 0.0009630278
0.2033658 0.5633528 0.0009446591
0.2011563 0.5651771 0.0009262924
0.1989305 0.5669813 0.0009079332
0.1966884 0.5687654 0.000889587
0.1944303 0.5705292 0.0008712595
0.1921564 0.5722725 0.0008529563
0.1898668 0.5739951 0.0008346831
0.1875618 0.5756971 0.0008164457
0.1852415 0.5773781 0.0007982497
0.182906 0.5790381 0.000780101
0.1805557 0.5806769 0.0007620054
0.1781906 0.5822944 0.0007439688
0.1758111 0.5838904 0.0007259971
0.1734171 0.5854649 0.0007080962
0.1710091 0.5870176 0.000690272
0.168587 0.5885485 0.0006725306
0.1661513 0.5900575 0.000654878
0.163702 0.5915443 0.0006373202
0.1612393 0.5930089 0.0006198634
0.1587635 0.5944511 0.0006025136
0.1562747 0.5958709 0.000585277
0.1537731 0.5972681 0.0005681597
0.151259 0.5986426 0.000551168
0.1487326 0.5999942 0.0005343081
0.146194 0.6013229 0.0005175863
0.1436435 0.6026286 0.0005010088
0.1410813 0.6039111 0.0004845819
0.1385075 0.6051703 0.000468312
0.1359225 0.6064061 0.0004522055
0.1333263 0.6076185 0.0004362686
0.1307193 0.6088073 0.0004205079
0.1281016 0.6099724 0.0004049296
0.1254734 0.6111136 0.0003895404
0.122835 0.6122311 0.0003743466
0.1201865 0.6133245 0.0003593547
0.1175282 0.6143938 0.0003445713
0.1148604 0.615439 0.0003300028
0.1121831 0.6164599 0.0003156558
0.1094967 0.6174565 0.0003015369
0.1068014 0.6184287 0.0002876526
0.1040973 0.6193763 0.0002740096
0.1013848 0.6202993 0.0002606143
0.09866395 0.6211977 0.0002474736
0.09593507 0.6220713 0.0002345939
0.09319837 0.62292 0.000221982
0.09045406 0.6237439 0.0002096445
0.08770238 0.6245428 0.0001975881
0.08494354 0.6253166 0.0001858195
0.08217779 0.6260653 0.0001743454
0.07940533 0.6267888 0.0001631724
0.07662641 0.6274871 0.0001523073
0.07384125 0.6281601 0.0001417568
0.07105008 0.6288077 0.0001315277
0.06825313 0.6294298 0.0001216267
0.06545063 0.6300265 0.0001120605
0.06264282 0.6305977 0.0001028359
0.05982992 0.6311432 9.39596e-05
0.05701217 0.6316632 8.543843e-05
0.0541898 0.6321574 7.727912e-05
0.05136304 0.6326259 6.948844e-05
0.04853213 0.6330686 6.207315e-05
0.0456973 0.6334855 5.504003e-05
0.04285879 0.6338766 4.839583e-05
0.04001683 0.6342417 4.214734e-05
0.03717166 0.634581 3.630132e-05
0.03432351 0.6348942 3.086453e-05
0.03147263 0.6351815 2.584373e-05
0.02861924 0.6354428 2.12457e-05
0.02576358 0.635678 1.707717e-05
0.0229059 0.6358872 1.33449e-05
0.02004643 0.6360702 1.005564e-05
0.0171854 0.6362272 7.216122e-06
0.01432306 0.636358 4.83308e-06
0.01145964 0.6364627 2.913238e-06
0.00859539 0.6365412 1.463308e-06
0.005730539 0.6365936 4.899974e-07
0.00286533 0.6366198 0
0 0.6366198 0

LINES 349 1047
2 0 1
2 1 2
2 2 3
2 3 4
2 4 5
2 5 6
2 6 7
2 7 8
2 8 9
2 9 10
2 10 11
2 11 12
2 12 13
2 13 14
2 14 15
2 15 16
2 16 17
2 17 18
2 18 19
2 19 20
2 20 21
2 21 22
2 22 23
2 23 24
2 24 25
2 25 26
2 26 27
2 27 28
2 28 29
2 29 30
2 30 31
2 31 32
2 32 33
2 33 34
2 34 35
2 35 36
2 36 37
2 37 38
2 38 39
2 39 40
2 40 41
2 41 42
2 42 43
2 43 44
2 44 45
2 45 46
2 46 47
2 47 48
2 48 49
2 49 50
2 50 51
2 51 52
2 52 53
2 53 54
2 54 55
2 55 56
2 56 57
2 57 58
2 58 59
2 59 60
2 60 61
2 61 62
2 62 63
2 63 64
2 64 65
2 65 66
2 66 67
2 67 68
2 68 69
2 69 70
2 70 71
2 71 72
2 72 73
2 73 74
2 74 75
2 75 76
2 76 77
2 77 78
2 78 79
2 79 80
2 80 81
2 81 82
2 82 83
2 83 84
2 84 85
2 85 86
2 86 87
2 87 88
2 88 89
2 89 90
2 90 91
2 91 92
2 92 93
2 93 94
2 94 95
2 95 96
2 96 97
2 97 98
2 98 99
2 99 100
2 100 101
2 101 102
2 102 103
2 103 104
2 104 105
2 105 106
2 106 107
2 107 108
2 108 109
2 109 110
2 110 111
2 111 112
2 112 113
2 113 114
2 114 115
2 115 116
2 116 117
2 117 118
2 118 119
2 119 120
2 120 121
2 121 122
2 122 123
2 123 124
2 124 125
2 125 126
2 126 127
2 127 128
2 128 129
2 129 130
2 130 131
2 131 132
2 132 133
2 133 134
2 134 135
2 135 136
2 136 137
2 137 138
2 138 139
2 139 140
2 140 141
2 141 142
2 142 143
2 143 144
2 144 145
2 145 146
2 146 147
2 147 148
2 148 149
2 149 150
2 150 151
2 151 152
2 152 153
2 153 154
2 154 155
2 155 156
2 156 157
2 157 158
2 158 159
2 159 160
2 160 161
2 161 162
2 162 163
2 163 164
2 164 165
2 165 166
2 166 167
2 167 168
2 168 169
2 169 170
2 170 171
2 171 172
2 172 173
2 173 174
2 174 175
2 175 176
2 176 177
2 177 178
2 178 179
2 179 180
2 180 181
2 181 182
2 182 183
2 183 184
2 184 185
2 185 186
2 186 187
2 187 188
2 188 189
2 189 190
2 190 191
2 191 192
2 192 193
2 193 194
2 194 195
2 195 196
2 196 197
2 197 198
2 198 199
2 199 200
2 200 201
2 201 202
2 202 203
2 203 204
2 204 205
2 205 206
2 206 207
2 207 208
2 208 209
2 209 210
2 210 211
2 211 212
2 212 213
2 213 214
2 214 215
2 215 216
2 216 217
2 217 218
2 218 219
2 219 220
2 220 221
2 221 222
2 222 223
2 223 224
2 224 225
2 225 226
2 226 227
2 227 228
2 228 229
2 229 230
2 230 231
2 231 232
2 232 233
2 233 234
2 234 235
2 235 236
2 236 237
2 237 238
2 238 239
2 239 240
2 240 241
2 241 242
2 242 243
2 243 244
2 244 245
2 245 246
2 246 247
2 247 248
2 248 249
2 249 250
2 250 251
2 251 252
2 252 253
2 253 254
2 254 255
2 255 256
2 256 257
2 257 258
2 258 259
2 259 260
2 260 261
2 261 262
2 262 263
2 263 264
2 264 265
2 265 266
2 266 267
2 267 268
2 268 269
2 269 270
2 270 271
2 271 272
2 272 273
2 273 274
2 274 275
2 275 276
2 276 277
2 277 278
2 278 279
2 279 280
2 280 281
2 281 282
2 282 283
2 283 284
2 284 285
2 285 286
2 286 287
2 287 288
2 288 289
2 289 290
2 290 291
2 291 292
2 292 293
2 293 294
2 294 295
2 295 296
2 296 297
2 297 298
2 298 299
2 299 300
2 300 301
2 301 302
2 302 303
2 303 304
2 304 305
2 305 306
2 306 307
2 307 308
2 308 309
2 309 310
2 310 311
2 311 312
2 312 313
2 313 314
2 314 315
2 315 316
2 316 317
2 317 318
2 318 319
2 319 320
2 320 321
2 321 322
2 322 323
2 323 324
2 324 325
2 325 326
2 326 327
2 327 328
2 328 329
2 329 330
2 330 331
2 331 332
2 332 333
2 333 334
2 334 335
2 335 336
2 336 337
2 337 338
2 338 339
2 339 340
2 340 341
2 341 342
2 342 343
2 343 344
2 344 345
2 345 346
2 346 347
2 347 348
2 348 349


POINT_DATA 350
SCALARS a FLOAT 1
LOOKUP_TABLE default
0.0005894628
0.0005894628
0.0005894628
0.0005894628
0.0005894628
0.0005894628
0.0005894628
0.0005894628
0.0005894628
0.0005894628
0.0005894628
0.0005894628
0.0005894628
0.0005894628
0.0005894628
0.0005894628
0.0005894628
0.0005894628
0.0005894628
0.0005894628
0.0005894628
0.0005894628
0.0005894628
0.0005894628
0.0005894628
0.0005894628
0.0005894628
0.0005894628
0.0005894628
0.0005894628
0.0005894628
0.0005894628
0.0005894628
0.0005894628
0.0005894628
0.0005894628
0.0005894628
0.0005894628
0.0005894628
0.0005894628
0.0005894628
0.0005894628
0.0005894628
0.0005894628
0.0005894628
0.0005894628
0.0005894628
0.0005894628
0.0005894628
0.0005894628
0.0005894628
0.0005894628
0.0005894628
0.0005894628
0.0005894628
0.0005894628
0.0005894628
0.0005894628
0.0005894628
0.0005894628
0.0005894628
0.0005894628
0.0005894628
0.0005894628
0.0005894628
0.0005894628
0.0005894628
0.0005894628
0.0005894628
0.0005894628
0.0005894628
0.0005894628
0.0005894628
0.0005894628
0.0005894628
0.0005894628
0.0005894628
0.0005894628
0.0005894628
0.0005894628
0.0005894628
0.0005894628
0.0005894628
0.0005894628
0.0005894628
0.0005894628
0.0005894628
0.0005894628
0.0005894628
0.0005894628
0.0005894628
0.0005894628
0.0005894628
0.0005894628
0.0005894628
0.0005894628
0.0005894628
0.0005894628
0.0005894628
0.0005894628
0.0005894628
0.0005894628
0.0005894628
0.0005894628
0.0005894628
0.0005894628
0.0005894628
0.0005894628
0.0005894628
0.0005894628
0.0005894628
0.0005894628
0.0005894628
0.0005894628
0.0005894628
0.0005894628
0.0005894628
0.0005894628
0.0005894628
0.0005894628
0.0005894628
0.0005894628
0.0005894628
0.0005894628
0.0005894628
0.0005894628
0.0005894628
0.0005894628
0.0005894628
0.0005894628
0.0005894628
0.0005894628
0.0005894628
0.0005894628
0.0005894628
0.0005894628
0.0005894628
0.0005894628
0.0005894628
0.0005894628
0.0005894628
0.0005894628
0.0005894628
0.0005894628
0.0005894628
0.0005894628
0.0005894628
0.0005894628
0.0005894628
0.0005894628
0.0005894628
0.0005894628
0.0005894628
0.0005894628
0.0005894628
0.0005894628
0.0005894628
0.0005894628
0.0005894628
0.0005894628
0.0005894628
0.0005894628
0.0005894628
0.0005894628
0.0005894628
0.0005894628
0.0005894628
0.0005894628
0.0005894628
0.0005894628
0.0005894628
0.0005894628
0.0005894628
0.0005894628
0.0005894628
0.0005894628
0.0005894628
0.0005894628
0.0005894628
0.0005894628
0.0005894628
0.0005894628
0.0005894628
0.0005894628
0.0005894628
0.0005894628
0.0005894628
0.0005894628
0.0005894628
0.0005894628
0.0005894628
0.0005894628
0.0005894628
0.0005894628
0.0005894628
0.0005894628
0.0005894628
0.0005894628
0.0005894628
0.0005894628
0.0005894628
0.0005894628
0.0005894628
0.0005894628
0.0005894628
0.0005894628
0.0005894628
0.0005894628
0.0005894628
0.0005894628
0.0005894628
0.0005894628
0.0005894628
0.0005894628
0.0005894628
0.0005894628
0.0005894628
0.0005894628
0.0005894628
0.0005894628
0.0005894628
0.0005894628
0.0005894628
0.0005894628
0.0005894628
0.0005894628
0.0005894628
0.0005894628
0.0005894628
0.0005894628
0.0005894628
0.0005894628
0.0005894628
0.0005894628
0.0005894628
0.0005894628
0.0005894628
0.0005894628
0.0005894628
0.0005894628
0.0005894628
0.0005894628
0.0005894628
0.0005894628
0.0005894628
0.0005894628
0.0005894628
0.0005894628
0.0005894628
0.0005894628
0.0005894628
0.0005894628
0.0005894628
0.0005894628
0.0005894628
0.0005894628
0.0005894628
0.0005894628
0.0005894628
0.0005894628
0.0005894628
0.0005894628
0.0005894628
0.0005894628
0.0005894628
0.0005894628
0.0005894628
0.0005894628
0.0005894628
0.0005894628
0.0005894628
0.0005894628
0.0005894628
0.0005894628
0.0005894628
0.0005894628
0.0005894628
0.0005894628
0.0005894628
0.0005894628
0.0005894628
0.0005894628
0.0005894628
0.0005894628
0.0005894628
0.0005894628
0.0005894628
0.0005894628
0.0005894628
0.0005894628
0.0005894628
0.0005894628
0.0005894628
0.0005894628
0.0005894628
0.0005894628
0.0005894628
0.0005894628
0.0005894628
0.0005894628
0.0005894628
0.0005894628
0.0005894628
0.0005894628
0.0005894628
0.0005894628
0.0005894628
0.0005894628
0.0005894628
0.0005894628
0.0005894628
0.0005894628
0.0005894628
0.0005894628
0.0005894628
0.0005894628
0.0005894628
0.0005894628
0.0005894628
0.0005894628
0.0005894628
0.0005894628
0.0005894628
0.0005894628
0.0005894628
0.0005894628
0.0005894628
0.0005894628
0.0005894628
0.0005894628
0.0005894628
0.0005894628
0.0005894628
0.0005894628
0.0005894628
0.0005894628
0.0005894628
0.0005894628
0.0005894628
0.0005894628
0.0005894628
0.0005894628
0.0005894628
0.0005894628
0.0005894628
0.0005894628
0.0005894628
0.0005894628
0.0005894628
0.0005894628


SCALARS b FLOAT 1
LOOKUP_TABLE default
0.02357851
0.02357851
0.02357851
0.02357851
0.02357851
0.02357851
0.02357851
0.02357851
0.02357851
0.02357851
0.02357851
0.02357851
0.02357851
0.02357851
0.02357851
0.02357851
0.02357851
0.02357851
0.02357851
0.02357851
0.02357851
0.02357851
0.02357851
0.02357851
0.02357851
0.02357851
0.02357851
0.02357851
0.02357851
0.02357851
0.02357851
0.02357851
0.02357851
0.02357851
0.02357851
0.02357851
0.02357851
0.02357851
0.02357851
0.02357851
0.02357851
0.02357851
0.02357851
0.02357851
0.02357851
0.02357851
0.02357851
0.02357851
0.02357851
0.02357851
0.02357851
0.02357851
0.02357851
0.02357851
0.02357851
0.02357851
0.02357851
0.02357851
0.02357851
0.02357851
0.02357851
0.02357851
0.02357851
0.02357851
0.02357851
0.02357851
0.02357851
0.02357851
0.02357851
0.02357851
0.02357851
0.02357851
0.02357851
0.02357851
0.02357851
0.02357851
0.02357851
0.02357851
0.02357851
0.02357851
0.02357851
0.02357851
0.02357851
0.02357851
0.02357851
0.02357851
0.02357851
0.02357851
0.02357851
0.02357851
0.02357851
0.02357851
0.02357851
0.02357851
0.02357851
0.02357851
0.02357851
0.02357851
0.02357851
0.02357851
0.02357851
0.02357851
0.02357851
0.02357851
0.02357851
0.02357851
0.02357851
0.02357851
0.02357851
0.02357851
0.02357851
0.02357851
0.02357851
0.02357851
0.02357851
0.02357851
0.02357851
0.02357851
0.02357851
0.02357851
0.02357851
0.02357851
0.02357851
0.02357851
0.02357851
0.02357851
0.02357851
0.02357851
0.02357851
0.02357851
0.02357851
0.02357851
0.02357851
0.02357851
0.02357851
0.02357851
0.02357851
0.02357851
0.02357851
0.02357851
0.02357851
0.02357851
0.02357851
0.02357851
0.02357851
0.02357851
0.02357851
0.02357851
0.02357851
0.02357851
0.02357851
0.02357851
0.02357851
0.02357851
0.02357851
0.02357851
0.02357851
0.02357851
0.02357851
0.02357851
0.02357851
0.02357851
0.02357851
0.02357851
0.02357851
0.02357851
0.02357851
0.02357851
0.02357851
0.02357851
0.02357851
0.02357851
0.02357851
0.02357851
0.02357851
0.02357851
0.02357851
0.02357851
0.02357851
0.02357851
0.02357851
0.02357851
0.02357851
0.02357851
0.02357851
0.02357851
0.02357851
0.02357851
0.02357851
0.02357851
0.02357851
0.02357851
0.02357851
0.02357851
0.02357851
0.02357851
0.02357851
0.02357851
0.02357851
0.02357851
0.02357851
0.02357851
0.02357851
0.02357851
0.02357851
0.02357851
0.02357851
0.02357851
0.02357851
0.02357851
0.02357851
0.02357851
0.02357851
0.02357851
0.02357851
0.02357851
0.02357851
0.02357851
0.02357851
0.02357851
0.02357851
0.02357851
0.02357851
0.02357851
0.02357851
0.02357851
0.02357851
0.02357851
0.02357851
0.02357851
0.02357851
0.02357851
0.02357851
0.02357851
0.02357851
0.02357851
0.02357851
0.02357851
0.02357851
0.02357851
0.02357851
0.02357851
0.02357851
0.02357851
0.02357851
0.02357851
0.02357851
0.02357851
0.02357851
0.02357851
0.02357851
0.02357851
0.02357851
0.02357851
0.02357851
0.02357851
0.02357851
0.02357851
0.02357851
0.02357851
0.02357851
0.02357851
0.02357851
0.02357851
0.02357851
0.02357851
0.02357851
0.02357851
0.02357851
0.02357851
0.02357851
0.02357851
0.02357851
0.02357851
0.02357851
0.02357851
0.02357851
0.02357851
0.02357851
0.02357851
0.02357851
0.02357851
0.02357851
0.02357851
0.02357851
0.02357851
0.02357851
0.02357851
0.02357851
0.02357851
0.02357851
0.02357851
0.02357851
0.02357851
0.02357851
0.02357851
0.02357851
0.02357851
0.02357851
0.02357851
0.02357851
0.02357851
0.02357851
0.02357851
0.02357851
0.02357851
0.02357851
0.02357851
0.02357851
0.02357851
0.02357851
0.02357851
0.02357851
0.02357851
0.02357851
0.02357851
0.02357851
0.02357851
0.02357851
0.02357851
0.02357851
0.02357851
0.02357851
0.02357851
0.02357851
0.02357851
0.02357851
0.02357851
0.02357851
0.02357851
0.02357851
0.02357851
0.02357851
0.02357851
0.02357851
0.02357851
0.02357851
0.02357851
0.02357851
0.02357851
0.02357851
0.02357851
0.02357851
0.02357851
0.02357851
0.02357851
0.02357851
0.02357851
0.02357851
0.02357851


VECTORS d1 FLOAT
0 0.9998224 0.01884844
-0.009139405 0.9997853 0.01859679
-0.01827644 0.9996647 0.01834462
-0.02741035 0.9994605 0.01809195
-0.03654038 0.9991729 0.01783882
-0.04566575 0.998802 0.01758525
-0.05478571 0.9983477 0.01733128
-0.06389951 0.9978102 0.01707692
-0.07300638 0.9971896 0.01682221
-0.08210557 0.9964859 0.01656718
-0.09119633 0.9956993 0.01631186
-0.1002779 0.9948299 0.01605627
-0.1093495 0.9938778 0.01580045
-0.1184105 0.9928431 0.01554442
-0.12746 0.9917259 0.01528821
-0.1364974 0.9905264 0.01503185
-0.1455218 0.9892447 0.01477537
-0.1545325 0.987881 0.0145188
-0.1635289 0.9864354 0.01426216
-0.1725101 0.9849082 0.01400549
-0.1814754 0.9832994 0.01374881
-0.1904242 0.9816092 0.01349214
-0.1993556 0.9798378 0.01323553
-0.2082689 0.9779855 0.01297899
-0.2171634 0.9760524 0.01272256
-0.2260383 0.9740386 0.01246626
-0.2348931 0.9719445 0.01221012
-0.2437268 0.9697702 0.01195417
-0.2525389 0.967516 0.01169844
-0.2613286 0.9651821 0.01144295
-0.2700951 0.9627686 0.01118773
-0.2788379 0.960276 0.01093282
-0.2875561 0.9577043 0.01067822
-0.296249 0.9550539 0.01042399
-0.304916 0.9523249 0.01017013
-0.3135564 0.9495178 0.009916686
-0.3221695 0.9466327 0.009663676
-0.3307545 0.9436699 0.00941113
-0.3393108 0.9406297 0.009159073
-0.3478377 0.9375125 0.008907533
-0.3563345 0.9343184 0.008656537
-0.3648005 0.9310478 0.008406112
-0.3732351 0.9277009 0.008156283
-0.3816375 0.9242782 0.007907078
-0.3900072 0.92078 0.007658523
-0.3983434 0.9172064 0.007410645
-0.4066455 0.913558 0.007163468
-0.4149127 0.9098349 0.006917019
-0.4231446 0.9060376 0.006671325
-0.4313403 0.9021664 0.006426411
-0.4394993 0.8982217 0.006182302
-0.4476208 0.8942037 0.005939025
-0.4557044 0.890113 0.005696604
-0.4637492 0.8859497 0.005455064
-0.4717547 0.8817144 0.005214432
-0.4797203 0.8774074 0.004974732
-0.4876452 0.873029 0.004735989
-0.495529 0.8685797 0.004498228
-0.5033709 0.8640599 0.004261473
-0.5111704 0.8594699 0.004025748
-0.5189268 0.8548102 0.003791079
-0.5266396 0.8500812 0.003557489
-0.5343081 0.8452833 0.003325003
-0.5419317 0.8404169 0.003093644
-0.5495098 0.8354824 0.002863436
-0.5570419 0.8304802 0.002634403
-0.5645273 0.8254109 0.002406568
-0.5719654 0.8202748 0.002179955
-0.5793557 0.8150725 0.001954586
-0.5866977 0.8098042 0.001730485
-0.5939906 0.8044705 0.001507674
-0.601234 0.7990719 0.001286177
-0.6084274 0.7936089 0.001066015
-0.61557 0.7880817 0.0008472114
-0.6226615 0.7824911 0.000629788
-0.6297011 0.7768374 0.0004137669
-0.6366885 0.7711211 0.0001991699
-0.643623 0.7653427 -1.398128e-05
-0.6505041 0.7595027 -0.0002256651
-0.6573313 0.7536016 -0.0004358602
-0.664104 0.7476399 -0.0006445455
-0.6708218 0.7416181 -0.0008516999
-0.6774841 0.7355367 -0.001057303
-0.6840904 0.7293962 -0.001261333
-0.6906402 0.7231971 -0.001463771
-0.6971329 0.71694 -0.001664595
-0.7035681 0.7106254 -0.001863787
-0.7099454 0.7042537 -0.002061326
-0.7162641 0.6978256 -0.002257191
-0.7225239 0.6913416 -0.002451365
-0.7287242 0.6848022 -0.002643827
-0.7348645 0.678208 -0.002834558
-0.7409445 0.6715595 -0.003023539
-0.7469635 0.6648572 -0.003210752
-0.7529213 0.6581018 -0.003396177
-0.7588173 0.6512937 -0.003579797
-0.764651 0.6444336 -0.003761594
-0.7704221 0.637522 -0.003941549
-0.77613 0.6305595 -0.004119644
-0.7817744 0.6235466 -0.004295863
-0.7873548 0.616484 -0.004470187
-0.7928708 0.6093721 -0.004642599
-0.798322 0.6022117 -0.004813083
-0.8037079 0.5950032 -0.004981621
-0.8090282 0.5877473 -0.005148198
-0.8142824 0.5804446 -0.005312796
-0.8194702 0.5730956 -0.0054754
-0.8245912 0.565701 -0.005635993
-0.8296449 0.5582613 -0.00579456
-0.8346311 0.5507772 -0.005951086
-0.8395492 0.5432493 -0.006105554
-0.844399 0.5356782 -0.006257951
-0.8491801 0.5280645 -0.00640826
-0.8538921 0.5204088 -0.006556468
-0.8585346 0.5127118 -0.00670256
-0.8631074 0.504974 -0.006846521
-0.86761 0.4971961 -0.006988338
-0.8720422 0.4893788 -0.007127997
-0.8764036 0.4815226 -0.007265485
-0.8806938 0.4736281 -0.007400787
-0.8849126 0.4656961 -0.007533891
-0.8890597 0.4577272 -0.007664783
-0.8931346 0.449722 -0.007793452
-0.8971372 0.4416811 -0.007919885
-0.9010671 0.4336052 -0.008044069
-0.904924 0.4254949 -0.008165992
-0.9087076 0.417351 -0.008285643
-0.9124177 0.409174 -0.00840301
-0.916054 0.4009645 -0.008518082
-0.9196161 0.3927234 -0.008630848
-0.923104 0.3844511 -0.008741296
-0.9265171 0.3761485 -0.008849416
-0.9298555 0.367816 -0.008955197
-0.9331186 0.3594545 -0.009058631
-0.9363064 0.3510646 -0.009159705
-0.9394186 0.3426469 -0.009258412
-0.942455 0.3342021 -0.00935474
-0.9454153 0.3257309 -0.009448682
-0.9482993 0.3172339 -0.009540227
-0.9511068 0.3087119 -0.009629368
-0.9538376 0.3001655 -0.009716095
-0.9564915 0.2915954 -0.009800401
-0.9590683 0.2830023 -0.009882276
-0.9615678 0.2743868 -0.009961714
-0.9639898 0.2657497 -0.01003871
-0.9663341 0.2570915 -0.01011325
-0.9686006 0.2484131 -0.01018533
-0.9707891 0.2397151 -0.01025494
-0.9728994 0.2309982 -0.01032208
-0.9749314 0.2222631 -0.01038674
-0.9768849 0.2135104 -0.01044891
-0.9787598 0.2047409 -0.0105086
-0.9805559 0.1959552 -0.01056578
-0.9822732 0.1871541 -0.01062046
-0.9839114 0.1783382 -0.01067264
-0.9854704 0.1695083 -0.0107223
-0.9869502 0.160665 -0.01076944
-0.9883507 0.151809 -0.01081406
-0.9896717 0.1429411 -0.01085615
-0.9909131 0.1340619 -0.01089571
-0.9920748 0.1251722 -0.01093274
-0.9931568 0.1162725 -0.01096722
-0.994159 0.1073638 -0.01099917
-0.9950812 0.09844653 -0.01102857
-0.9959235 0.08952154 -0.01105543
-0.9966858 0.08058949 -0.01107973
-0.997368 0.0716511 -0.01110149
-0.99797 0.06270706 -0.01112068
-0.9984919 0.05375808 -0.01113733
-0.9989335 0.04480487 -0.01115141
-0.9992949 0.03584813 -0.01116294
-0.999576 0.02688857 -0.0111719
-0.9997768 0.01792689 -0.01117831
-0.9998973 0.008963799 -0.01118215
-0.9999375 4.475855e-13 -0.01118343
-0.9998973 -0.008963799 -0.01118215
-0.9997768 -0.01792689 -0.01117831
-0.999576 -0.02688857 -0.0111719
-0.9992949 -0.03584813 -0.01116294
-0.9989335 -0.04480487 -0.01115141
-0.9984919 -0.05375808 -0.01113733
-0.99797 -0.06270706 -0.01112068
-0.997368 -0.0716511 -0.01110149
-0.9966858 -0.08058949 -0.01107973
-0.9959235 -0.08952154 -0.01105543
-0.9950812 -0.09844653 -0.01102857
-0.994159 -0.1073638 -0.01099917
-0.9931568 -0.1162725 -0.01096722
-0.9920748 -0.1251722 -0.01093274
-0.9909131 -0.1340619 -0.01089571
-0.9896717 -0.1429411 -0.01085615
-0.9883507 -0.151809 -0.01081406
-0.9869502 -0.160665 -0.01076944
-0.9854704 -0.1695083 -0.0107223
-0.9839114 -0.1783382 -0.01067264
-0.9822732 -0.1871541 -0.01062046
-0.9805559 -0.1959552 -0.01056578
-0.9787598 -0.2047409 -0.0105086
-0.9768849 -0.2135104 -0.01044891
-0.9749314 -0.2222631 -0.01038674
-0.9728994 -0.2309982 -0.01032208
-0.9707891 -0.2397151 -0.01025494
-0.9686006 -0.2484131 -0.01018533