# vtk DataFile Version 2.0
Written badly by Kevin Korner
ASCII
DATASET POLYDATA
POINTS 350 FLOAT
0 0 0
0.00286533 0 0
0.005730488 2.080445e-05 -2.344086e-05
0.00859513 6.273017e-05 -7.013468e-05
0.01145891 0.000126085 -0.0001398835
0.01432148 0.0002111676 -0.0002324795
0.01718249 0.0003182674 -0.0003477053
0.02004158 0.0004476644 -0.0004853343
0.02289841 0.000599629 -0.0006451309
0.02575263 0.000774422 -0.0008268509
0.02860387 0.0009722945 -0.001030242
0.03145179 0.001193488 -0.001255042
0.03429604 0.001438233 -0.001500984
0.03713625 0.001706751 -0.001767791
0.03997209 0.001999254 -0.002055181
0.04280319 0.002315944 -0.002362862
0.04562922 0.002657011 -0.002690538
0.04844981 0.003022636 -0.003037906
0.05126464 0.003412992 -0.003404657
0.05407334 0.00382824 -0.003790476
0.05687559 0.00426853 -0.004195044
0.05967104 0.004734004 -0.004618034
0.06245935 0.005224794 -0.005059117
0.06524019 0.005741021 -0.005517957
0.06801323 0.006282797 -0.005994218
0.07077815 0.006850224 -0.006487554
0.07353461 0.007443394 -0.006997621
0.0762823 0.008062392 -0.007524069
0.07902091 0.008707289 -0.008066544
0.08175011 0.009378151 -0.008624691
0.08446959 0.01007503 -0.009198152
0.08717906 0.01079798 -0.009786566
0.08987822 0.01154703 -0.01038957
0.09256675 0.01232221 -0.0110068
0.09524438 0.01312354 -0.0116379
0.09791082 0.01395103 -0.01228248
0.1005658 0.01480468 -0.01294019
0.103209 0.0156845 -0.01361066
0.1058402 0.01659045 -0.01429352
0.108459 0.01752253 -0.01498839
0.1110653 0.0184807 -0.01569491
0.1136588 0.01946492 -0.01641271
0.1162392 0.02047516 -0.01714142
0.1188063 0.02151136 -0.01788066
0.1213598 0.02257345 -0.01863008
0.1238995 0.02366138 -0.0193893
0.1264252 0.02477507 -0.02015795
0.1289366 0.02591444 -0.02093567
0.1314335 0.02707941 -0.0217221
0.1339157 0.02826988 -0.02251688
0.1363829 0.02948576 -0.02331964
0.138835 0.03072694 -0.02413002
0.1412718 0.03199331 -0.02494766
0.1436931 0.03328476 -0.02577222
0.1460986 0.03460117 -0.02660334
0.1484881 0.0359424 -0.02744066
0.1508616 0.03730834 -0.02828385
0.1532188 0.03869884 -0.02913255
0.1555595 0.04011377 -0.02998642
0.1578836 0.04155297 -0.03084513
0.1601909 0.04301631 -0.03170832
0.1624813 0.04450362 -0.03257568
0.1647545 0.04601476 -0.03344687
0.1670105 0.04754955 -0.03432155
0.1692491 0.04910783 -0.03519941
0.1714701 0.05068944 -0.03608013
0.1736734 0.0522942 -0.03696338
0.175859 0.05392193 -0.03784885
0.1780265 0.05557247 -0.03873623
0.1801761 0.05724562 -0.03962521
0.1823074 0.05894121 -0.04051549
0.1844204 0.06065904 -0.04140676
0.186515 0.06239893 -0.04229873
0.188591 0.06416068 -0.04319109
0.1906485 0.0659441 -0.04408358
0.1926871 0.067749 -0.04497588
0.194707 0.06957517 -0.04586773
0.1967079 0.07142241 -0.04675884
0.1986898 0.07329052 -0.04764894
0.2006527 0.0751793 -0.04853775
0.2025963 0.07708855 -0.04942502
0.2045206 0.07901804 -0.05031046
0.2064257 0.08096758 -0.05119382
0.2083112 0.08293696 -0.05207485
0.2101774 0.08492595 -0.05295329
0.2120239 0.08693436 -0.05382889
0.2138508 0.08896196 -0.05470141
0.2156581 0.09100855 -0.0555706
0.2174456 0.0930739 -0.05643622
0.2192132 0.0951578 -0.05729805
0.2209611 0.09726003 -0.05815584
0.222689 0.09938037 -0.05900937
0.224397 0.1015186 -0.05985842
0.2260849 0.1036745 -0.06070277
0.2277529 0.1058479 -0.06154219
0.2294007 0.1080385 -0.06237649
0.2310284 0.1102461 -0.06320544
0.2326359 0.1124705 -0.06402884
0.2342232 0.1147115 -0.06484648
0.2357903 0.1169689 -0.06565818
0.237337 0.1192423 -0.06646373
0.2388635 0.1215317 -0.06726294
0.2403696 0.1238368 -0.06805562
0.2418554 0.1261573 -0.06884159
0.2433208 0.1284931 -0.06962066
0.2447658 0.1308439 -0.07039265
0.2461903 0.1332095 -0.07115739
0.2475944 0.1355896 -0.07191471
0.2489779 0.1379841 -0.07266444
0.250341 0.1403928 -0.0734064
0.2516836 0.1428154 -0.07414045
0.2530056 0.1452516 -0.07486641
0.2543071 0.1477013 -0.07558413
0.255588 0.1501643 -0.07629346
0.2568484 0.1526403 -0.07699424
0.2580881 0.1551291 -0.07768633
0.2593072 0.1576305 -0.07836959
0.2605058 0.1601443 -0.07904387
0.2616837 0.1626702 -0.07970903
0.262841 0.165208 -0.08036494
0.2639776 0.1677575 -0.08101146
0.2650936 0.1703186 -0.08164847
0.2661889 0.1728909 -0.08227583
0.2672636 0.1754742 -0.08289342
0.2683176 0.1780684 -0.08350113
0.269351 0.1806733 -0.08409882
0.2703637 0.1832885 -0.08468639
0.2713557 0.1859139 -0.08526371
0.272327 0.1885492 -0.08583068
0.2732776 0.1911944 -0.0863872
0.2742076 0.193849 -0.08693315
0.2751169 0.196513 -0.08746842
0.2760054 0.1991861 -0.08799293
0.2768733 0.2018681 -0.08850657
0.2777205 0.2045588 -0.08900925
0.2785471 0.2072579 -0.08950086
0.2793529 0.2099653 -0.08998133
0.280138 0.2126807 -0.09045057
0.2809025 0.2154039 -0.09090848
0.2816463 0.2181348 -0.09135498
0.2823693 0.220873 -0.09179
0.2830717 0.2236185 -0.09221346
0.2837535 0.2263709 -0.09262527
0.2844145 0.2291301 -0.09302537
0.2850548 0.2318958 -0.09341368
0.2856745 0.2346679 -0.09379014
0.2862735 0.2374461 -0.09415468
0.2868518 0.2402302 -0.09450723
0.2874094 0.24302 -0.09484773
0.2879464 0.2458154 -0.09517613
0.2884627 0.248616 -0.09549236
0.2889583 0.2514217 -0.09579637
0.2894332 0.2542323 -0.09608811
0.2898875 0.2570476 -0.09636752
0.2903212 0.2598673 -0.09663456
0.2907341 0.2626913 -0.09688919
0.2911264 0.2655193 -0.09713135
0.291498 0.2683511 -0.09736101
0.291849 0.2711865 -0.09757812
0.2921794 0.2740254 -0.09778266
0.292489 0.2768675 -0.09797458
0.2927781 0.2797126 -0.09815385
0.2930464 0.2825604 -0.09832045
0.2932941 0.2854109 -0.09847434
0.2935212 0.2882637 -0.0986155
0.2937276 0.2911187 -0.0987439
0.2939134 0.2939757 -0.09885952
0.2940786 0.2968344 -0.09896234
0.294223 0.2996946 -0.09905235
0.2943469 0.3025563 -0.09912953
0.2944501 0.305419 -0.09919387
0.2945327 0.3082827 -0.09924535
0.2945946 0.3111471 -0.09928397
0.2946359 0.314012 -0.09930972
0.2946565 0.3168772 -0.0993226
0.2946565 0.3197426 -0.0993226
0.2946359 0.3226078 -0.09930972
0.2945946 0.3254727 -0.09928397
0.2945327 0.3283371 -0.09924535
0.2944501 0.3312008 -0.09919387
0.2943469 0.3340635 -0.09912953
0.294223 0.3369251 -0.09905235
0.2940786 0.3397854 -0.09896234
0.2939134 0.3426441 -0.09885952
0.2937276 0.3455011 -0.0987439
0.2935212 0.3483561 -0.0986155
0.2932941 0.3512089 -0.09847434
0.2930464 0.3540594 -0.09832045
0.2927781 0.3569072 -0.09815385
0.292489 0.3597523 -0.09797458
0.2921794 0.3625944 -0.09778266
0.291849 0.3654332 -0.09757812
0.291498 0.3682687 -0.09736101
0.2911264 0.3711005 -0.09713135
0.2907341 0.3739285 -0.09688919
0.2903212 0.3767525 -0.09663456
0.2898875 0.3795722 -0.09636752
0.2894332 0.3823874 -0.09608811
0.2889583 0.385198 -0.09579637
0.2884627 0.3880037 -0.09549236
0.2879464 0.3908044 -0.09517613
0.2874094 0.3935997 -0.09484773
0.2868518 0.3963896 -0.09450723
0.2862735 0.3991737 -0.09415468
0.2856745 0.4019519 -0.09379014
0.2850548 0.404724 -0.09341368
0.2844145 0.4074897 -0.09302537
0.2837535 0.4102489 -0.09262527
0.2830717 0.4130013 -0.09221346
0.2823693 0.4157468 -0.09179
0.2816463 0.418485 -0.09135498
0.2809025 0.4212159 -0.09090848
0.280138 0.4239391 -0.09045057
0.2793529 0.4266545 -0.08998133
0.2785471 0.4293619 -0.08950086
0.2777205 0.432061 -0.08900925
0.2768733 0.4347517 -0.08850657
0.2760054 0.4374337 -0.08799293
0.2751169 0.4401068 -0.08746842
0.2742076 0.4427707 -0.08693315
0.2732776 0.4454254 -0.0863872
0.272327 0.4480705 -0.08583068
0.2713557 0.4507059 -0.08526371
0.2703637 0.4533313 -0.08468639
0.269351 0.4559465 -0.08409882
0.2683176 0.4585513 -0.08350113
0.2672636 0.4611455 -0.08289342
0.2661889 0.4637289 -0.08227583
0.2650936 0.4663012 -0.08164847
0.2639776 0.4688622 -0.08101146
0.262841 0.4714118 -0.08036494
0.2616837 0.4739496 -0.07970903
0.2605058 0.4764755 -0.07904387
0.2593072 0.4789893 -0.07836959
0.2580881 0.4814907 -0.07768633
0.2568484 0.4839795 -0.07699424
0.255588 0.4864555 -0.07629346
0.2543071 0.4889184 -0.07558413
0.2530056 0.4913682 -0.07486641
0.2516836 0.4938044 -0.07414045
0.250341 0.496227 -0.0734064
0.2489779 0.4986356 -0.07266444
0.2475944 0.5010302 -0.07191471
0.2461903 0.5034103 -0.07115739
0.2447658 0.5057759 -0.07039265
0.2433208 0.5081267 -0.06962066
0.2418554 0.5104625 -0.06884159
0.2403696 0.512783 -0.06805562
0.2388635 0.5150881 -0.06726294
0.237337 0.5173774 -0.06646373
0.2357903 0.5196509 -0.06565818
0.2342232 0.5219082 -0.06484648
0.2326359 0.5241492 -0.06402884
0.2310284 0.5263736 -0.06320544
0.2294007 0.5285813 -0.06237649
0.2277529 0.5307719 -0.06154219
0.2260849 0.5329452 -0.06070277
0.224397 0.5351012 -0.05985842
0.222689 0.5372394 -0.05900937
0.2209611 0.5393597 -0.05815584
0.2192132 0.541462 -0.05729805
0.2174456 0.5435459 -0.05643622
0.2156581 0.5456112 -0.0555706
0.2138508 0.5476578 -0.05470141
0.2120239 0.5496854 -0.05382889
0.2101774 0.5516938 -0.05295329
0.2083112 0.5536828 -0.05207485
0.2064257 0.5556522 -0.05119382
0.2045206 0.5576017 -0.05031046
0.2025963 0.5595312 -0.04942502
0.2006527 0.5614405 -0.04853775
0.1986898 0.5633292 -0.04764894
0.1967079 0.5651974 -0.04675884
0.194707 0.5670446 -0.04586773
0.1926871 0.5688708 -0.04497588
0.1906485 0.5706757 -0.04408358
0.188591 0.5724591 -0.04319109
0.186515 0.5742208 -0.04229873
0.1844204 0.5759607 -0.04140676
0.1823074 0.5776786 -0.04051549
0.1801761 0.5793741 -0.03962521
0.1780265 0.5810473 -0.03873623
0.175859 0.5826978 -0.03784885
0.1736734 0.5843256 -0.03696338
0.1714701 0.5859303 -0.03608013
0.1692491 0.5875119 -0.03519941
0.1670105 0.5890702 -0.03432155
0.1647545 0.590605 -0.03344687
0.1624813 0.5921161 -0.03257568
0.1601909 0.5936035 -0.03170832
0.1578836 0.5950668 -0.03084513
0.1555595 0.596506 -0.02998642
0.1532188 0.5979209 -0.02913255
0.1508616 0.5993114 -0.02828385
0.1484881 0.6006774 -0.02744066
0.1460986 0.6020186 -0.02660334
0.1436931 0.603335 -0.02577222
0.1412718 0.6046265 -0.02494766
0.138835 0.6058928 -0.02413002
0.1363829 0.607134 -0.02331964
0.1339157 0.6083499 -0.02251688
0.1314335 0.6095404 -0.0217221
0.1289366 0.6107053 -0.02093567
0.1264252 0.6118447 -0.02015795
0.1238995 0.6129584 -0.0193893
0.1213598 0.6140463 -0.01863008
0.1188063 0.6151084 -0.01788066
0.1162392 0.6161446 -0.01714142
0.1136588 0.6171548 -0.01641271
0.1110653 0.6181391 -0.01569491
0.108459 0.6190972 -0.01498839
0.1058402 0.6200293 -0.01429352
0.103209 0.6209353 -0.01361066
0.1005658 0.6218151 -0.01294019
0.09791082 0.6226687 -0.01228248
0.09524438 0.6234962 -0.0116379
0.09256675 0.6242976 -0.0110068
0.08987822 0.6250727 -0.01038957
0.08717906 0.6258218 -0.009786566
0.08446959 0.6265447 -0.009198152
0.08175011 0.6272416 -0.008624691
0.07902091 0.6279125 -0.008066544
0.0762823 0.6285574 -0.007524069
0.07353461 0.6291764 -0.006997621
0.07077815 0.6297695 -0.006487554
0.06801323 0.630337 -0.005994218
0.06524019 0.6308788 -0.005517957
0.06245935 0.631395 -0.005059117
0.05967104 0.6318858 -0.004618034
0.05687559 0.6323512 -0.004195044
0.05407334 0.6327915 -0.003790476
0.05126464 0.6332068 -0.003404657
0.04844981 0.6335971 -0.003037906
0.04562922 0.6339628 -0.002690538
0.04280319 0.6343038 -0.002362862
0.03997209 0.6346205 -0.002055181
0.03713625 0.634913 -0.001767791
0.03429604 0.6351815 -0.001500984
0.03145179 0.6354263 -0.001255042
0.02860387 0.6356475 -0.001030242
0.02575263 0.6358454 -0.0008268509
0.02289841 0.6360201 -0.0006451309
0.02004158 0.6361721 -0.0004853343
0.01718249 0.6363015 -0.0003477053
0.01432148 0.6364086 -0.0002324795
0.01145891 0.6364937 -0.0001398835
0.00859513 0.636557 -7.013468e-05
0.005730488 0.636599 -2.344086e-05
0.00286533 0.6366198 0
0 0.6366198 0

LINES 349 1047
2 0 1
2 1 2
2 2 3
2 3 4
2 4 5
2 5 6
2 6 7
2 7 8
2 8 9
2 9 10
2 10 11
2 11 12
2 12 13
2 13 14
2 14 15
2 15 16
2 16 17
2 17 18
2 18 19
2 19 20
2 20 21
2 21 22
2 22 23
2 23 24
2 24 25
2 25 26
2 26 27
2 27 28
2 28 29
2 29 30
2 30 31
2 31 32
2 32 33
2 33 34
2 34 35
2 35 36
2 36 37
2 37 38
2 38 39
2 39 40
2 40 41
2 41 42
2 42 43
2 43 44
2 44 45
2 45 46
2 46 47
2 47 48
2 48 49
2 49 50
2 50 51
2 51 52
2 52 53
2 53 54
2 54 55
2 55 56
2 56 57
2 57 58
2 58 59
2 59 60
2 60 61
2 61 62
2 62 63
2 63 64
2 64 65
2 65 66
2 66 67
2 67 68
2 68 69
2 69 70
2 70 71
2 71 72
2 72 73
2 73 74
2 74 75
2 75 76
2 76 77
2 77 78
2 78 79
2 79 80
2 80 81
2 81 82
2 82 83
2 83 84
2 84 85
2 85 86
2 86 87
2 87 88
2 88 89
2 89 90
2 90 91
2 91 92
2 92 93
2 93 94
2 94 95
2 95 96
2 96 97
2 97 98
2 98 99
2 99 100
2 100 101
2 101 102
2 102 103
2 103 104
2 104 105
2 105 106
2 106 107
2 107 108
2 108 109
2 109 110
2 110 111
2 111 112
2 112 113
2 113 114
2 114 115
2 115 116
2 116 117
2 117 118
2 118 119
2 119 120
2 120 121
2 121 122
2 122 123
2 123 124
2 124 125
2 125 126
2 126 127
2 127 128
2 128 129
2 129 130
2 130 131
2 131 132
2 132 133
2 133 134
2 134 135
2 135 136
2 136 137
2 137 138
2 138 139
2 139 140
2 140 141
2 141 142
2 142 143
2 143 144
2 144 145
2 145 146
2 146 147
2 147 148
2 148 149
2 149 150
2 150 151
2 151 152
2 152 153
2 153 154
2 154 155
2 155 156
2 156 157
2 157 158
2 158 159
2 159 160
2 160 161
2 161 162
2 162 163
2 163 164
2 164 165
2 165 166
2 166 167
2 167 168
2 168 169
2 169 170
2 170 171
2 171 172
2 172 173
2 173 174
2 174 175
2 175 176
2 176 177
2 177 178
2 178 179
2 179 180
2 180 181
2 181 182
2 182 183
2 183 184
2 184 185
2 185 186
2 186 187
2 187 188
2 188 189
2 189 190
2 190 191
2 191 192
2 192 193
2 193 194
2 194 195
2 195 196
2 196 197
2 197 198
2 198 199
2 199 200
2 200 201
2 201 202
2 202 203
2 203 204
2 204 205
2 205 206
2 206 207
2 207 208
2 208 209
2 209 210
2 210 211
2 211 212
2 212 213
2 213 214
2 214 215
2 215 216
2 216 217
2 217 218
2 218 219
2 219 220
2 220 221
2 221 222
2 222 223
2 223 224
2 224 225
2 225 226
2 226 227
2 227 228
2 228 229
2 229 230
2 230 231
2 231 232
2 232 233
2 233 234
2 234 235
2 235 236
2 236 237
2 237 238
2 238 239
2 239 240
2 240 241
2 241 242
2 242 243
2 243 244
2 244 245
2 245 246
2 246 247
2 247 248
2 248 249
2 249 250
2 250 251
2 251 252
2 252 253
2 253 254
2 254 255
2 255 256
2 256 257
2 257 258
2 258 259
2 259 260
2 260 261
2 261 262
2 262 263
2 263 264
2 264 265
2 265 266
2 266 267
2 267 268
2 268 269
2 269 270
2 270 271
2 271 272
2 272 273
2 273 274
2 274 275
2 275 276
2 276 277
2 277 278
2 278 279
2 279 280
2 280 281
2 281 282
2 282 283
2 283 284
2 284 285
2 285 286
2 286 287
2 287 288
2 288 289
2 289 290
2 290 291
2 291 292
2 292 293
2 293 294
2 294 295
2 295 296
2 296 297
2 297 298
2 298 299
2 299 300
2 300 301
2 301 302
2 302 303
2 303 304
2 304 305
2 305 306
2 306 307
2 307 308
2 308 309
2 309 310
2 310 311
2 311 312
2 312 313
2 313 314
2 314 315
2 315 316
2 316 317
2 317 318
2 318 319
2 319 320
2 320 321
2 321 322
2 322 323
2 323 324
2 324 325
2 325 326
2 326 327
2 327 328
2 328 329
2 329 330
2 330 331
2 331 332
2 332 333
2 333 334
2 334 335
2 335 336
2 336 337
2 337 338
2 338 339
2 339 340
2 340 341
2 341 342
2 342 343
2 343 344
2 344 345
2 345 346
2 346 347
2 347 348
2 348 349


POINT_DATA 350
SCALARS a FLOAT 1
LOOKUP_TABLE default
0.0005894628
0.0005894628
0.0005894628
0.0005894628
0.0005894628
0.0005894628
0.0005894628
0.0005894628
0.0005894628
0.0005894628
0.0005894628
0.0005894628
0.0005894628
0.0005894628
0.0005894628
0.0005894628
0.0005894628
0.0005894628
0.0005894628
0.0005894628
0.0005894628
0.0005894628
0.0005894628
0.0005894628
0.0005894628
0.0005894628
0.0005894628
0.0005894628
0.0005894628
0.0005894628
0.0005894628
0.0005894628
0.0005894628
0.0005894628
0.0005894628
0.0005894628
0.0005894628
0.0005894628
0.0005894628
0.0005894628
0.0005894628
0.0005894628
0.0005894628
0.0005894628
0.0005894628
0.0005894628
0.0005894628
0.0005894628
0.0005894628
0.0005894628
0.0005894628
0.0005894628
0.0005894628
0.0005894628
0.0005894628
0.0005894628
0.0005894628
0.0005894628
0.0005894628
0.0005894628
0.0005894628
0.0005894628
0.0005894628
0.0005894628
0.0005894628
0.0005894628
0.0005894628
0.0005894628
0.0005894628
0.0005894628
0.0005894628
0.0005894628
0.0005894628
0.0005894628
0.0005894628
0.0005894628
0.0005894628
0.0005894628
0.0005894628
0.0005894628
0.0005894628
0.0005894628
0.0005894628
0.0005894628
0.0005894628
0.0005894628
0.0005894628
0.0005894628
0.0005894628
0.0005894628
0.0005894628
0.0005894628
0.0005894628
0.0005894628
0.0005894628
0.0005894628
0.0005894628
0.0005894628
0.0005894628
0.0005894628
0.0005894628
0.0005894628
0.0005894628
0.0005894628
0.0005894628
0.0005894628
0.0005894628
0.0005894628
0.0005894628
0.0005894628
0.0005894628
0.0005894628
0.0005894628
0.0005894628
0.0005894628
0.0005894628
0.0005894628
0.0005894628
0.0005894628
0.0005894628
0.0005894628
0.0005894628
0.0005894628
0.0005894628
0.0005894628
0.0005894628
0.0005894628
0.0005894628
0.0005894628
0.0005894628
0.0005894628
0.0005894628
0.0005894628
0.0005894628
0.0005894628
0.0005894628
0.0005894628
0.0005894628
0.0005894628
0.0005894628
0.0005894628
0.0005894628
0.0005894628
0.0005894628
0.0005894628
0.0005894628
0.0005894628
0.0005894628
0.0005894628
0.0005894628
0.0005894628
0.0005894628
0.0005894628
0.0005894628
0.0005894628
0.0005894628
0.0005894628
0.0005894628
0.0005894628
0.0005894628
0.0005894628
0.0005894628
0.0005894628
0.0005894628
0.0005894628
0.0005894628
0.0005894628
0.0005894628
0.0005894628
0.0005894628
0.0005894628
0.0005894628
0.0005894628
0.0005894628
0.0005894628
0.0005894628
0.0005894628
0.0005894628
0.0005894628
0.0005894628
0.0005894628
0.0005894628
0.0005894628
0.0005894628
0.0005894628
0.0005894628
0.0005894628
0.0005894628
0.0005894628
0.0005894628
0.0005894628
0.0005894628
0.0005894628
0.0005894628
0.0005894628
0.0005894628
0.0005894628
0.0005894628
0.0005894628
0.0005894628
0.0005894628
0.0005894628
0.0005894628
0.0005894628
0.0005894628
0.0005894628
0.0005894628
0.0005894628
0.0005894628
0.0005894628
0.0005894628
0.0005894628
0.0005894628
0.0005894628
0.0005894628
0.0005894628
0.0005894628
0.0005894628
0.0005894628
0.0005894628
0.0005894628
0.0005894628
0.0005894628
0.0005894628
0.0005894628
0.0005894628
0.0005894628
0.0005894628
0.0005894628
0.0005894628
0.0005894628
0.0005894628
0.0005894628
0.0005894628
0.0005894628
0.0005894628
0.0005894628
0.0005894628
0.0005894628
0.0005894628
0.0005894628
0.0005894628
0.0005894628
0.0005894628
0.0005894628
0.0005894628
0.0005894628
0.0005894628
0.0005894628
0.0005894628
0.0005894628
0.0005894628
0.0005894628
0.0005894628
0.0005894628
0.0005894628
0.0005894628
0.0005894628
0.0005894628
0.0005894628
0.0005894628
0.0005894628
0.0005894628
0.0005894628
0.0005894628
0.0005894628
0.0005894628
0.0005894628
0.0005894628
0.0005894628
0.0005894628
0.0005894628
0.0005894628
0.0005894628
0.0005894628
0.0005894628
0.0005894628
0.0005894628
0.0005894628
0.0005894628
0.0005894628
0.0005894628
0.0005894628
0.0005894628
0.0005894628
0.0005894628
0.0005894628
0.0005894628
0.0005894628
0.0005894628
0.0005894628
0.0005894628
0.0005894628
0.0005894628
0.0005894628
0.0005894628
0.0005894628
0.0005894628
0.0005894628
0.0005894628
0.0005894628
0.0005894628
0.0005894628
0.0005894628
0.0005894628
0.0005894628
0.0005894628
0.0005894628
0.0005894628
0.0005894628
0.0005894628
0.0005894628
0.0005894628
0.0005894628
0.0005894628
0.0005894628
0.0005894628
0.0005894628
0.0005894628
0.0005894628
0.0005894628
0.0005894628
0.0005894628
0.0005894628
0.0005894628
0.0005894628
0.0005894628
0.0005894628
0.0005894628
0.0005894628
0.0005894628
0.0005894628
0.0005894628
0.0005894628
0.0005894628
0.0005894628
0.0005894628
0.0005894628
0.0005894628
0.0005894628
0.0005894628
0.0005894628
0.0005894628
0.0005894628
0.0005894628
0.0005894628
0.0005894628
0.0005894628
0.0005894628
0.0005894628


SCALARS b FLOAT 1
LOOKUP_TABLE default
0.02357851
0.02357851
0.02357851
0.02357851
0.02357851
0.02357851
0.02357851
0.02357851
0.02357851
0.02357851
0.02357851
0.02357851
0.02357851
0.02357851
0.02357851
0.02357851
0.02357851
0.02357851
0.02357851
0.02357851
0.02357851
0.02357851
0.02357851
0.02357851
0.02357851
0.02357851
0.02357851
0.02357851
0.02357851
0.02357851
0.02357851
0.02357851
0.02357851
0.02357851
0.02357851
0.02357851
0.02357851
0.02357851
0.02357851
0.02357851
0.02357851
0.02357851
0.02357851
0.02357851
0.02357851
0.02357851
0.02357851
0.02357851
0.02357851
0.02357851
0.02357851
0.02357851
0.02357851
0.02357851
0.02357851
0.02357851
0.02357851
0.02357851
0.02357851
0.02357851
0.02357851
0.02357851
0.02357851
0.02357851
0.02357851
0.02357851
0.02357851
0.02357851
0.02357851
0.02357851
0.02357851
0.02357851
0.02357851
0.02357851
0.02357851
0.02357851
0.02357851
0.02357851
0.02357851
0.02357851
0.02357851
0.02357851
0.02357851
0.02357851
0.02357851
0.02357851
0.02357851
0.02357851
0.02357851
0.02357851
0.02357851
0.02357851
0.02357851
0.02357851
0.02357851
0.02357851
0.02357851
0.02357851
0.02357851
0.02357851
0.02357851
0.02357851
0.02357851
0.02357851
0.02357851
0.02357851
0.02357851
0.02357851
0.02357851
0.02357851
0.02357851
0.02357851
0.02357851
0.02357851
0.02357851
0.02357851
0.02357851
0.02357851
0.02357851
0.02357851
0.02357851
0.02357851
0.02357851
0.02357851
0.02357851
0.02357851
0.02357851
0.02357851
0.02357851
0.02357851
0.02357851
0.02357851
0.02357851
0.02357851
0.02357851
0.02357851
0.02357851
0.02357851
0.02357851
0.02357851
0.02357851
0.02357851
0.02357851
0.02357851
0.02357851
0.02357851
0.02357851
0.02357851
0.02357851
0.02357851
0.02357851
0.02357851
0.02357851
0.02357851
0.02357851
0.02357851
0.02357851
0.02357851
0.02357851
0.02357851
0.02357851
0.02357851
0.02357851
0.02357851
0.02357851
0.02357851
0.02357851
0.02357851
0.02357851
0.02357851
0.02357851
0.02357851
0.02357851
0.02357851
0.02357851
0.02357851
0.02357851
0.02357851
0.02357851
0.02357851
0.02357851
0.02357851
0.02357851
0.02357851
0.02357851
0.02357851
0.02357851
0.02357851
0.02357851
0.02357851
0.02357851
0.02357851
0.02357851
0.02357851
0.02357851
0.02357851
0.02357851
0.02357851
0.02357851
0.02357851
0.02357851
0.02357851
0.02357851
0.02357851
0.02357851
0.02357851
0.02357851
0.02357851
0.02357851
0.02357851
0.02357851
0.02357851
0.02357851
0.02357851
0.02357851
0.02357851
0.02357851
0.02357851
0.02357851
0.02357851
0.02357851
0.02357851
0.02357851
0.02357851
0.02357851
0.02357851
0.02357851
0.02357851
0.02357851
0.02357851
0.02357851
0.02357851
0.02357851
0.02357851
0.02357851
0.02357851
0.02357851
0.02357851
0.02357851
0.02357851
0.02357851
0.02357851
0.02357851
0.02357851
0.02357851
0.02357851
0.02357851
0.02357851
0.02357851
0.02357851
0.02357851
0.02357851
0.02357851
0.02357851
0.02357851
0.02357851
0.02357851
0.02357851
0.02357851
0.02357851
0.02357851
0.02357851
0.02357851
0.02357851
0.02357851
0.02357851
0.02357851
0.02357851
0.02357851
0.02357851
0.02357851
0.02357851
0.02357851
0.02357851
0.02357851
0.02357851
0.02357851
0.02357851
0.02357851
0.02357851
0.02357851
0.02357851
0.02357851
0.02357851
0.02357851
0.02357851
0.02357851
0.02357851
0.02357851
0.02357851
0.02357851
0.02357851
0.02357851
0.02357851
0.02357851
0.02357851
0.02357851
0.02357851
0.02357851
0.02357851
0.02357851
0.02357851
0.02357851
0.02357851
0.02357851
0.02357851
0.02357851
0.02357851
0.02357851
0.02357851
0.02357851
0.02357851
0.02357851
0.02357851
0.02357851
0.02357851
0.02357851
0.02357851
0.02357851
0.02357851
0.02357851
0.02357851
0.02357851
0.02357851
0.02357851
0.02357851
0.02357851
0.02357851
0.02357851
0.02357851
0.02357851
0.02357851
0.02357851
0.02357851
0.02357851
0.02357851
0.02357851
0.02357851
0.02357851
0.02357851
0.02357851
0.02357851
0.02357851
0.02357851
0.02357851
0.02357851
0.02357851
0.02357851
0.02357851
0.02357851


VECTORS d1 FLOAT
0 0.6589521 -0.7521849
-0.01093809 0.6675473 -0.744487
-0.02189991 0.6759373 -0.7366336
-0.03288075 0.6841204 -0.7286276
-0.04387599 0.6920947 -0.720472
-0.05488104 0.6998587 -0.7121698
-0.06589138 0.707411 -0.7037243
-0.07690254 0.7147504 -0.6951388
-0.08791014 0.7218756 -0.6864164
-0.09890984 0.7287856 -0.6775606
-0.1098974 0.7354795 -0.6685749
-0.1208686 0.7419566 -0.6594628
-0.1318193 0.7482162 -0.6502277
-0.1427456 0.7542579 -0.6408734
-0.1536434 0.7600811 -0.6314035
-0.1645089 0.7656857 -0.6218217
-0.1753383 0.7710715 -0.6121317
-0.1861279 0.7762385 -0.6023372
-0.1968741 0.7811868 -0.5924422
-0.2075734 0.7859166 -0.5824503
-0.2182223 0.7904283 -0.5723654
-0.2288174 0.7947222 -0.5621914
-0.2393557 0.7987989 -0.5519322
-0.2498338 0.8026591 -0.5415916
-0.2602487 0.8063035 -0.5311734
-0.2705976 0.809733 -0.5206816
-0.2808774 0.8129486 -0.5101201
-0.2910855 0.8159512 -0.4994927
-0.3012191 0.818742 -0.4888032
-0.3112757 0.8213223 -0.4780555
-0.3212529 0.8236934 -0.4672535
-0.3311482 0.8258566 -0.4564009
-0.3409593 0.8278134 -0.4455016
-0.3506842 0.8295655 -0.4345592
-0.3603206 0.8311144 -0.4235776
-0.3698666 0.8324617 -0.4125605
-0.3793204 0.8336094 -0.4015114
-0.38868 0.8345592 -0.3904341
-0.3979439 0.835313 -0.3793322
-0.4071104 0.8358727 -0.3682091
-0.416178 0.8362404 -0.3570686
-0.4251452 0.836418 -0.3459139
-0.4340108 0.8364078 -0.3347486
-0.4427734 0.8362119 -0.323576
-0.451432 0.8358323 -0.3123995
-0.4599855 0.8352715 -0.3012224
-0.4684329 0.8345315 -0.2900479
-0.4767732 0.8336148 -0.2788791
-0.4850058 0.8325237 -0.2677194
-0.4931298 0.8312605 -0.2565716
-0.5011446 0.8298276 -0.2454389
-0.5090496 0.8282274 -0.2343242
-0.5168444 0.8264624 -0.2232304
-0.5245284 0.824535 -0.2121604
-0.5321014 0.8224476 -0.2011171
-0.5395632 0.8202027 -0.190103
-0.5469134 0.8178028 -0.179121
-0.5541519 0.8152504 -0.1681736
-0.5612787 0.8125481 -0.1572634
-0.5682938 0.8096982 -0.146393
-0.5751973 0.8067034 -0.1355647
-0.5819892 0.803566 -0.124781
-0.5886697 0.8002887 -0.1140443
-0.595239 0.7968738 -0.1033567
-0.6016976 0.793324 -0.09272045
-0.6080456 0.7896417 -0.0821378
-0.6142835 0.7858293 -0.07161081
-0.6204118 0.7818893 -0.06114152
-0.6264309 0.7778243 -0.05073192
-0.6323414 0.7736366 -0.04038394
-0.6381439 0.7693286 -0.03009946
-0.6438389 0.7649027 -0.01988029
-0.6494273 0.7603615 -0.00972821
-0.6549097 0.7557071 0.0003550745
-0.6602868 0.750942 0.0103679
-0.6655594 0.7460685 0.02030867
-0.6707284 0.741089 0.03017583
-0.6757946 0.7360056 0.03996786
-0.6807589 0.7308207 0.04968332
-0.6856222 0.7255365 0.05932081
-0.6903855 0.7201553 0.06887896
-0.6950497 0.7146791 0.07835647
-0.6996158 0.7091102 0.08775208
-0.7040849 0.7034507 0.09706457
-0.708458 0.6977028 0.1062928
-0.7127361 0.6918684 0.1154356
-0.7169204 0.6859496 0.1244919
-0.721012 0.6799485 0.1334606
-0.7250119 0.6738671 0.1423409
-0.7289213 0.6677072 0.1511316
-0.7327414 0.6614709 0.1598319
-0.7364733 0.6551601 0.1684409
-0.7401182 0.6487765 0.1769578
-0.7436773 0.6423222 0.1853817
-0.7471517 0.6357987 0.1937119
-0.7505427 0.629208 0.2019476
-0.7538515 0.6225518 0.2100882
-0.7570793 0.6158319 0.218133
-0.7602274 0.6090497 0.2260812
-0.7632969 0.6022072 0.2339324
-0.766289 0.5953058 0.241686
-0.7692051 0.5883472 0.2493413
-0.7720463 0.5813329 0.2568979
-0.774814 0.5742644 0.2643553
-0.7775092 0.5671433 0.271713
-0.7801332 0.5599711 0.2789706
-0.7826873 0.5527491 0.2861276
-0.7851728 0.5454788 0.2931836
-0.7875907 0.5381615 0.3001384
-0.7899423 0.5307987 0.3069915
-0.7922289 0.5233917 0.3137426
-0.7944517 0.5159417 0.3203915
-0.7966118 0.50845 0.3269377
-0.7987104 0.5009179 0.3333811
-0.8007488 0.4933465 0.3397214
-0.802728 0.4857371 0.3459584
-0.8046493 0.4780908 0.3520918
-0.8065139 0.4704087 0.3581215
-0.8083227 0.4626921 0.3640473
-0.8100771 0.4549418 0.3698689
-0.8117781 0.4471591 0.3755864
-0.8134268 0.4393448 0.3811994
-0.8150243 0.4315002 0.3867079
-0.8165717 0.423626 0.3921118
-0.8180701 0.4157233 0.397411
-0.8195205 0.407793 0.4026053
-0.820924 0.3998361 0.4076947
-0.8222815 0.3918533 0.4126791
-0.8235942 0.3838457 0.4175585
-0.824863 0.375814 0.4223327
-0.8260888 0.3677591 0.4270018
-0.8272727 0.3596817 0.4315657
-0.8284155 0.3515828 0.4360244
-0.8295183 0.3434629 0.4403778
-0.8305819 0.3353229 0.444626
-0.8316072 0.3271636 0.4487689
-0.8325951 0.3189856 0.4528064
-0.8335464 0.3107896 0.4567387
-0.834462 0.3025763 0.4605657
-0.8353427 0.2943463 0.4642874
-0.8361893 0.2861004 0.4679038
-0.8370026 0.2778391 0.471415
-0.8377833 0.2695631 0.4748209
-0.8385322 0.2612729 0.4781216
-0.8392499 0.2529691 0.4813171
-0.8399373 0.2446524 0.4844074
-0.8405949 0.2363232 0.4873926
-0.8412235 0.2279822 0.4902726
-0.8418236 0.2196298 0.4930475
-0.8423958 0.2112666 0.4957174
-0.8429408 0.202893 0.4982822
-0.8434592 0.1945097 0.500742
-0.8439514 0.186117 0.5030969
-0.844418 0.1777154 0.5053468
-0.8448596 0.1693055 0.5074918
-0.8452765 0.1608876 0.509532
-0.8456692 0.1524623 0.5114673
-0.8460383 0.1440299 0.5132978
-0.846384 0.1355909 0.5150235
-0.8467068 0.1271458 0.5166444
-0.8470071 0.1186948 0.5181607
-0.8472852 0.1102386 0.5195722
-0.8475413 0.1017774 0.5208791
-0.8477759 0.09331169 0.5220813
-0.8479892 0.08484183 0.5231789
-0.8481814 0.07636823 0.524172
-0.8483527 0.06789127 0.5250604
-0.8485035 0.05941133 0.5258442
-0.8486337 0.0509288 0.5265236
-0.8487437 0.04244404 0.5270983
-0.8488335 0.03395744 0.5275686
-0.8489032 0.02546937 0.5279344
-0.8489529 0.01698019 0.5281956
-0.8489828 0.00849028 0.5283523
-0.8489927 2.553513e-15 0.5284046
-0.8489828 -0.00849028 0.5283523
-0.8489529 -0.01698019 0.5281956
-0.8489032 -0.02546937 0.5279344
-0.8488335 -0.03395744 0.5275686
-0.8487437 -0.04244404 0.5270983
-0.8486337 -0.0509288 0.5265236
-0.8485035 -0.05941133 0.5258442
-0.8483527 -0.06789127 0.5250604
-0.8481814 -0.07636823 0.524172
-0.8479892 -0.08484183 0.5231789
-0.8477759 -0.09331169 0.5220813
-0.8475413 -0.1017774 0.5208791
-0.8472852 -0.1102386 0.5195722
-0.8470071 -0.1186948 0.5181607
-0.8467068 -0.1271458 0.5166444
-0.846384 -0.1355909 0.5150235
-0.8460383 -0.1440299 0.5132978
-0.8456692 -0.1524623 0.5114673
-0.8452765 -0.1608876 0.509532
-0.8448596 -0.1693055 0.5074918
-0.844418 -0.1777154 0.5053468
-0.8439514 -0.186117 0.5030969
-0.8434592 -0.1945097 0.500742
-0.8429408 -0.202893 0.4982822
-0.8423958 -0.2112666 0.4957174
-0.8418236 -0.2196298 0.4930475
-0.8412235 -0.2279822 0.4902726
-0.8405949 -0.2363232 0.4873926
-0.8399373 -0.2446524 0.4844074
-0.8392499 -0.2529691 0.4813171
-0.8385322 -0.2612729 0.4781216
-0.8377833 -0.2695631 0.4748209
-0.8370026 -0.2778391 0.471415
-0.8361893 -0.2861004 0.4679038
-0.8353427 -0.2943463 0.4642874
-0.834462 -0.3025763 0.4605657
-0.8335464 -0.3107896 0.4567387
-0.8325951 -0.3189856 0.4528064
-0.8316072 -0.3271636 0.4487689
-0.8305819 -0.3353229 0.444626
-0.8295183 -0.3434629 0.4403778