# vtk DataFile Version 2.0
Written badly by Kevin Korner
ASCII
DATASET POLYDATA
POINTS 350 FLOAT
0 0 0
0.00286533 0 0
0.005730484 1.963961e-05 2.479883e-05
0.008595113 5.929681e-05 7.424331e-05
0.01145886 0.0001193403 0.0001481668
0.01432136 0.0002001293 0.0002463897
0.01718227 0.0003020132 0.0003687195
0.02004121 0.0004253312 0.0005149514
0.02289781 0.0005704126 0.0006848684
0.02575172 0.000737576 0.0008782421
0.02860255 0.0009271296 0.001094832
0.03144995 0.00113937 0.001334388
0.03429354 0.001374585 0.001596649
0.03713295 0.001633049 0.001881341
0.03996782 0.001915026 0.002188185
0.04279776 0.00222077 0.002516888
0.04562242 0.002550521 0.002867151
0.04844142 0.002904511 0.003238665
0.05125441 0.003282958 0.003631112
0.05406101 0.003686069 0.004044169
0.05686086 0.004114042 0.0044775
0.05965361 0.004567059 0.004930769
0.06243889 0.005045295 0.005403626
0.06521636 0.005548911 0.005895721
0.06798566 0.006078058 0.006406693
0.07074644 0.006632875 0.006936179
0.07349837 0.00721349 0.007483808
0.0762411 0.00782002 0.008049206
0.07897429 0.00845257 0.008631993
0.08169762 0.009111236 0.009231786
0.08441076 0.009796102 0.009848198
0.08711338 0.01050724 0.01048084
0.08980517 0.01124471 0.01112931
0.09248581 0.01200858 0.01179323
0.095155 0.01279887 0.01247218
0.09781244 0.01361563 0.01316577
0.1004578 0.01445887 0.01387359
0.1030909 0.01532861 0.01459525
0.1057113 0.01622485 0.01533033
0.1083188 0.01714758 0.01607843
0.1109131 0.01809679 0.01683915
0.1134939 0.01907246 0.01761206
0.116061 0.02007454 0.01839678
0.1186142 0.021103 0.01919288
0.1211531 0.02215779 0.01999997
0.1236776 0.02323885 0.02081763
0.1261873 0.02434611 0.02164547
0.1286821 0.0254795 0.02248307
0.1311617 0.02663893 0.02333004
0.1336259 0.02782432 0.02418598
0.1360745 0.02903557 0.02505048
0.1385073 0.03027258 0.02592315
0.140924 0.03153523 0.02680359
0.1433245 0.03282341 0.02769142
0.1457086 0.034137 0.02858623
0.1480761 0.03547587 0.02948765
0.1504268 0.03683988 0.03039529
0.1527606 0.03822889 0.03130877
0.1550772 0.03964276 0.03222771
0.1573765 0.04108133 0.03315173
0.1596583 0.04254446 0.03408047
0.1619225 0.04403197 0.03501355
0.164169 0.04554371 0.03595061
0.1663976 0.04707951 0.03689129
0.1686081 0.04863918 0.03783523
0.1708005 0.05022255 0.03878209
0.1729746 0.05182945 0.0397315
0.1751303 0.05345967 0.04068312
0.1772674 0.05511305 0.04163662
0.1793859 0.05678937 0.04259165
0.1814856 0.05848846 0.04354789
0.1835665 0.0602101 0.044505
0.1856284 0.0619541 0.04546266
0.1876712 0.06372025 0.04642055
0.1896949 0.06550835 0.04737835
0.1916994 0.06731819 0.04833576
0.1936846 0.06914955 0.04929246
0.1956504 0.07100223 0.05024815
0.1975967 0.07287601 0.05120254
0.1995235 0.07477067 0.05215532
0.2014308 0.07668599 0.05310622
0.2033183 0.07862176 0.05405495
0.2051861 0.08057775 0.05500122
0.2070342 0.08255374 0.05594476
0.2088624 0.0845495 0.05688529
0.2106708 0.08656482 0.05782256
0.2124592 0.08859946 0.0587563
0.2142277 0.0906532 0.05968624
0.2159761 0.09272581 0.06061214
0.2177046 0.09481706 0.06153374
0.2194129 0.09692673 0.0624508
0.2211011 0.09905458 0.06336308
0.2227692 0.1012004 0.06427033
0.2244171 0.1033639 0.06517234
0.2260448 0.1055449 0.06606886
0.2276524 0.1077432 0.06695967
0.2292396 0.1099586 0.06784456
0.2308066 0.1121907 0.0687233
0.2323534 0.1144394 0.06959569
0.2338799 0.1167044 0.07046151
0.235386 0.1189856 0.07132056
0.2368719 0.1212826 0.07217264
0.2383374 0.1235953 0.07301755
0.2397826 0.1259234 0.0738551
0.2412075 0.1282666 0.07468509
0.242612 0.1306249 0.07550735
0.2439962 0.1329979 0.07632169
0.24536 0.1353853 0.07712793
0.2467035 0.1377871 0.0779259
0.2480266 0.1402029 0.07871543
0.2493294 0.1426325 0.07949634
0.2506119 0.1450757 0.08026848
0.251874 0.1475322 0.08103168
0.2531158 0.1500019 0.08178579
0.2543372 0.1524846 0.08253064
0.2555383 0.1549799 0.0832661
0.2567191 0.1574876 0.08399201
0.2578796 0.1600076 0.08470822
0.2590198 0.1625396 0.08541461
0.2601397 0.1650835 0.08611102
0.2612393 0.1676388 0.08679732
0.2623186 0.1702056 0.08747338
0.2633777 0.1727834 0.08813907
0.2644165 0.1753722 0.08879427
0.265435 0.1779717 0.08943885
0.2664333 0.1805816 0.0900727
0.2674114 0.1832018 0.09069568
0.2683693 0.185832 0.0913077
0.269307 0.188472 0.09190863
0.2702245 0.1911216 0.09249837
0.2711218 0.1937807 0.09307682
0.2719989 0.1964488 0.09364386
0.2728559 0.199126 0.0941994
0.2736928 0.2018118 0.09474334
0.2745095 0.2045062 0.09527559
0.2753061 0.207209 0.09579604
0.2760826 0.2099198 0.09630462
0.276839 0.2126385 0.09680122
0.2775754 0.2153648 0.09728578
0.2782917 0.2180987 0.0977582
0.2789879 0.2208398 0.0982184
0.2796641 0.2235879 0.09866631
0.2803202 0.2263429 0.09910184
0.2809563 0.2291045 0.09952494
0.2815725 0.2318725 0.09993552
0.2821686 0.2346467 0.1003335
0.2827447 0.237427 0.1007189
0.2833009 0.240213 0.1010915
0.2838371 0.2430046 0.1014514
0.2843534 0.2458016 0.1017984
0.2848497 0.2486038 0.1021326
0.2853261 0.2514109 0.1024538
0.2857825 0.2542228 0.102762
0.2862191 0.2570392 0.1030571
0.2866357 0.2598601 0.1033392
0.2870325 0.262685 0.1036081
0.2874093 0.2655139 0.1038639
0.2877663 0.2683466 0.1041064
0.2881034 0.2711827 0.1043357
0.2884206 0.2740222 0.1045516
0.288718 0.2768649 0.1047543
0.2889955 0.2797105 0.1049435
0.2892532 0.2825588 0.1051194
0.289491 0.2854096 0.1052819
0.289709 0.2882627 0.1054309
0.2899072 0.291118 0.1055664
0.2900855 0.2939751 0.1056884
0.290244 0.296834 0.105797
0.2903827 0.2996944 0.105892
0.2905016 0.3025561 0.1059734
0.2906006 0.3054189 0.1060413
0.2906799 0.3082826 0.1060957
0.2907393 0.3111471 0.1061364
0.2907789 0.314012 0.1061636
0.2907987 0.3168772 0.1061772
0.2907987 0.3197426 0.1061772
0.2907789 0.3226078 0.1061636
0.2907393 0.3254727 0.1061364
0.2906799 0.3283371 0.1060957
0.2906006 0.3312008 0.1060413
0.2905016 0.3340637 0.1059734
0.2903827 0.3369254 0.105892
0.290244 0.3397858 0.105797
0.2900855 0.3426446 0.1056884
0.2899072 0.3455018 0.1055664
0.289709 0.3483571 0.1054309
0.289491 0.3512102 0.1052819
0.2892532 0.354061 0.1051194
0.2889955 0.3569093 0.1049435
0.288718 0.3597549 0.1047543
0.2884206 0.3625975 0.1045516
0.2881034 0.365437 0.1043357
0.2877663 0.3682732 0.1041064
0.2874093 0.3711059 0.1038639
0.2870325 0.3739348 0.1036081
0.2866357 0.3767597 0.1033392
0.2862191 0.3795805 0.1030571
0.2857825 0.382397 0.102762
0.2853261 0.3852089 0.1024538
0.2848497 0.388016 0.1021326
0.2843534 0.3908182 0.1017984
0.2838371 0.3936152 0.1014514
0.2833009 0.3964068 0.1010915
0.2827447 0.3991928 0.1007189
0.2821686 0.401973 0.1003335
0.2815725 0.4047473 0.09993552
0.2809563 0.4075153 0.09952494
0.2803202 0.4102769 0.09910184
0.2796641 0.4130319 0.09866631
0.2789879 0.41578 0.0982184
0.2782917 0.4185211 0.0977582
0.2775754 0.4212549 0.09728578
0.276839 0.4239813 0.09680122
0.2760826 0.4267 0.09630462
0.2753061 0.4294108 0.09579604
0.2745095 0.4321135 0.09527559
0.2736928 0.4348079 0.09474334
0.2728559 0.4374938 0.0941994
0.2719989 0.4401709 0.09364386
0.2711218 0.4428391 0.09307682
0.2702245 0.4454981 0.09249837
0.269307 0.4481478 0.09190863
0.2683693 0.4507878 0.0913077
0.2674114 0.453418 0.09069568
0.2664333 0.4560382 0.0900727
0.265435 0.4586481 0.08943885
0.2644165 0.4612476 0.08879427
0.2633777 0.4638363 0.08813907
0.2623186 0.4664142 0.08747338
0.2612393 0.4689809 0.08679732
0.2601397 0.4715363 0.08611102
0.2590198 0.4740801 0.08541461
0.2578796 0.4766121 0.08470822
0.2567191 0.4791321 0.08399201
0.2555383 0.4816399 0.0832661
0.2543372 0.4841352 0.08253064
0.2531158 0.4866178 0.08178579
0.251874 0.4890875 0.08103168
0.2506119 0.4915441 0.08026848
0.2493294 0.4939873 0.07949634
0.2480266 0.4964169 0.07871543
0.2467035 0.4988327 0.0779259
0.24536 0.5012344 0.07712793
0.2439962 0.5036219 0.07632169
0.242612 0.5059949 0.07550735
0.2412075 0.5083531 0.07468509
0.2397826 0.5106964 0.0738551
0.2383374 0.5130245 0.07301755
0.2368719 0.5153372 0.07217264
0.235386 0.5176342 0.07132056
0.2338799 0.5199154 0.07046151
0.2323534 0.5221804 0.06959569
0.2308066 0.5244291 0.0687233
0.2292396 0.5266612 0.06784456
0.2276524 0.5288765 0.06695967
0.2260448 0.5310748 0.06606886
0.2244171 0.5332559 0.06517234
0.2227692 0.5354194 0.06427033
0.2211011 0.5375652 0.06336308
0.2194129 0.539693 0.0624508
0.2177046 0.5418027 0.06153374
0.2159761 0.543894 0.06061214
0.2142277 0.5459666 0.05968624
0.2124592 0.5480203 0.0587563
0.2106708 0.550055 0.05782256
0.2088624 0.5520703 0.05688529
0.2070342 0.554066 0.05594476
0.2051861 0.556042 0.05500122
0.2033183 0.557998 0.05405495
0.2014308 0.5599338 0.05310622
0.1995235 0.5618491 0.05215532
0.1975967 0.5637438 0.05120254
0.1956504 0.5656175 0.05024815
0.1936846 0.5674702 0.04929246
0.1916994 0.5693016 0.04833576
0.1896949 0.5711114 0.04737835
0.1876712 0.5728995 0.04642055
0.1856284 0.5746657 0.04546266
0.1835665 0.5764097 0.044505
0.1814856 0.5781313 0.04354789
0.1793859 0.5798304 0.04259165
0.1772674 0.5815067 0.04163662
0.1751303 0.5831601 0.04068312
0.1729746 0.5847903 0.0397315
0.1708005 0.5863972 0.03878209
0.1686081 0.5879806 0.03783523
0.1663976 0.5895403 0.03689129
0.164169 0.5910761 0.03595061
0.1619225 0.5925878 0.03501355
0.1596583 0.5940753 0.03408047
0.1573765 0.5955384 0.03315173
0.1550772 0.596977 0.03222771
0.1527606 0.5983909 0.03130877
0.1504268 0.5997799 0.03039529
0.1480761 0.6011439 0.02948765
0.1457086 0.6024828 0.02858623
0.1433245 0.6037964 0.02769142
0.140924 0.6050845 0.02680359
0.1385073 0.6063472 0.02592315
0.1360745 0.6075842 0.02505048
0.1336259 0.6087954 0.02418598
0.1311617 0.6099808 0.02333004
0.1286821 0.6111403 0.02248307
0.1261873 0.6122737 0.02164547
0.1236776 0.6133809 0.02081763
0.1211531 0.614462 0.01999997
0.1186142 0.6155168 0.01919288
0.116061 0.6165452 0.01839678
0.1134939 0.6175473 0.01761206
0.1109131 0.618523 0.01683915
0.1083188 0.6194722 0.01607843
0.1057113 0.6203949 0.01533033
0.1030909 0.6212912 0.01459525
0.1004578 0.6221609 0.01387359
0.09781244 0.6230041 0.01316577
0.095155 0.6238209 0.01247218
0.09248581 0.6246112 0.01179323
0.08980517 0.6253751 0.01112931
0.08711338 0.6261125 0.01048084
0.08441076 0.6268237 0.009848198
0.08169762 0.6275085 0.009231786
0.07897429 0.6281672 0.008631993
0.0762411 0.6287998 0.008049206
0.07349837 0.6294063 0.007483808
0.07074644 0.6299869 0.006936179
0.06798566 0.6305417 0.006406693
0.06521636 0.6310709 0.005895721
0.06243889 0.6315745 0.005403626
0.05965361 0.6320527 0.004930769
0.05686086 0.6325057 0.0044775
0.05406101 0.6329337 0.004044169
0.05125441 0.6333368 0.003631112
0.04844142 0.6337153 0.003238665
0.04562242 0.6340693 0.002867151
0.04279776 0.634399 0.002516888
0.03996782 0.6347047 0.002188185
0.03713295 0.6349867 0.001881341
0.03429354 0.6352452 0.001596649
0.03144995 0.6354804 0.001334388
0.02860255 0.6356926 0.001094832
0.02575172 0.6358822 0.0008782421
0.02289781 0.6360494 0.0006848684
0.02004121 0.6361944 0.0005149514
0.01718227 0.6363178 0.0003687195
0.01432136 0.6364196 0.0002463897
0.01145886 0.6365004 0.0001481668
0.008595113 0.6365605 7.424331e-05
0.005730484 0.6366001 2.479883e-05
0.00286533 0.6366198 0
0 0.6366198 0

LINES 349 1047
2 0 1
2 1 2
2 2 3
2 3 4
2 4 5
2 5 6
2 6 7
2 7 8
2 8 9
2 9 10
2 10 11
2 11 12
2 12 13
2 13 14
2 14 15
2 15 16
2 16 17
2 17 18
2 18 19
2 19 20
2 20 21
2 21 22
2 22 23
2 23 24
2 24 25
2 25 26
2 26 27
2 27 28
2 28 29
2 29 30
2 30 31
2 31 32
2 32 33
2 33 34
2 34 35
2 35 36
2 36 37
2 37 38
2 38 39
2 39 40
2 40 41
2 41 42
2 42 43
2 43 44
2 44 45
2 45 46
2 46 47
2 47 48
2 48 49
2 49 50
2 50 51
2 51 52
2 52 53
2 53 54
2 54 55
2 55 56
2 56 57
2 57 58
2 58 59
2 59 60
2 60 61
2 61 62
2 62 63
2 63 64
2 64 65
2 65 66
2 66 67
2 67 68
2 68 69
2 69 70
2 70 71
2 71 72
2 72 73
2 73 74
2 74 75
2 75 76
2 76 77
2 77 78
2 78 79
2 79 80
2 80 81
2 81 82
2 82 83
2 83 84
2 84 85
2 85 86
2 86 87
2 87 88
2 88 89
2 89 90
2 90 91
2 91 92
2 92 93
2 93 94
2 94 95
2 95 96
2 96 97
2 97 98
2 98 99
2 99 100
2 100 101
2 101 102
2 102 103
2 103 104
2 104 105
2 105 106
2 106 107
2 107 108
2 108 109
2 109 110
2 110 111
2 111 112
2 112 113
2 113 114
2 114 115
2 115 116
2 116 117
2 117 118
2 118 119
2 119 120
2 120 121
2 121 122
2 122 123
2 123 124
2 124 125
2 125 126
2 126 127
2 127 128
2 128 129
2 129 130
2 130 131
2 131 132
2 132 133
2 133 134
2 134 135
2 135 136
2 136 137
2 137 138
2 138 139
2 139 140
2 140 141
2 141 142
2 142 143
2 143 144
2 144 145
2 145 146
2 146 147
2 147 148
2 148 149
2 149 150
2 150 151
2 151 152
2 152 153
2 153 154
2 154 155
2 155 156
2 156 157
2 157 158
2 158 159
2 159 160
2 160 161
2 161 162
2 162 163
2 163 164
2 164 165
2 165 166
2 166 167
2 167 168
2 168 169
2 169 170
2 170 171
2 171 172
2 172 173
2 173 174
2 174 175
2 175 176
2 176 177
2 177 178
2 178 179
2 179 180
2 180 181
2 181 182
2 182 183
2 183 184
2 184 185
2 185 186
2 186 187
2 187 188
2 188 189
2 189 190
2 190 191
2 191 192
2 192 193
2 193 194
2 194 195
2 195 196
2 196 197
2 197 198
2 198 199
2 199 200
2 200 201
2 201 202
2 202 203
2 203 204
2 204 205
2 205 206
2 206 207
2 207 208
2 208 209
2 209 210
2 210 211
2 211 212
2 212 213
2 213 214
2 214 215
2 215 216
2 216 217
2 217 218
2 218 219
2 219 220
2 220 221
2 221 222
2 222 223
2 223 224
2 224 225
2 225 226
2 226 227
2 227 228
2 228 229
2 229 230
2 230 231
2 231 232
2 232 233
2 233 234
2 234 235
2 235 236
2 236 237
2 237 238
2 238 239
2 239 240
2 240 241
2 241 242
2 242 243
2 243 244
2 244 245
2 245 246
2 246 247
2 247 248
2 248 249
2 249 250
2 250 251
2 251 252
2 252 253
2 253 254
2 254 255
2 255 256
2 256 257
2 257 258
2 258 259
2 259 260
2 260 261
2 261 262
2 262 263
2 263 264
2 264 265
2 265 266
2 266 267
2 267 268
2 268 269
2 269 270
2 270 271
2 271 272
2 272 273
2 273 274
2 274 275
2 275 276
2 276 277
2 277 278
2 278 279
2 279 280
2 280 281
2 281 282
2 282 283
2 283 284
2 284 285
2 285 286
2 286 287
2 287 288
2 288 289
2 289 290
2 290 291
2 291 292
2 292 293
2 293 294
2 294 295
2 295 296
2 296 297
2 297 298
2 298 299
2 299 300
2 300 301
2 301 302
2 302 303
2 303 304
2 304 305
2 305 306
2 306 307
2 307 308
2 308 309
2 309 310
2 310 311
2 311 312
2 312 313
2 313 314
2 314 315
2 315 316
2 316 317
2 317 318
2 318 319
2 319 320
2 320 321
2 321 322
2 322 323
2 323 324
2 324 325
2 325 326
2 326 327
2 327 328
2 328 329
2 329 330
2 330 331
2 331 332
2 332 333
2 333 334
2 334 335
2 335 336
2 336 337
2 337 338
2 338 339
2 339 340
2 340 341
2 341 342
2 342 343
2 343 344
2 344 345
2 345 346
2 346 347
2 347 348
2 348 349


POINT_DATA 350
SCALARS a FLOAT 1
LOOKUP_TABLE default
0.0005894628
0.0005894628
0.0005894628
0.0005894628
0.0005894628
0.0005894628
0.0005894628
0.0005894628
0.0005894628
0.0005894628
0.0005894628
0.0005894628
0.0005894628
0.0005894628
0.0005894628
0.0005894628
0.0005894628
0.0005894628
0.0005894628
0.0005894628
0.0005894628
0.0005894628
0.0005894628
0.0005894628
0.0005894628
0.0005894628
0.0005894628
0.0005894628
0.0005894628
0.0005894628
0.0005894628
0.0005894628
0.0005894628
0.0005894628
0.0005894628
0.0005894628
0.0005894628
0.0005894628
0.0005894628
0.0005894628
0.0005894628
0.0005894628
0.0005894628
0.0005894628
0.0005894628
0.0005894628
0.0005894628
0.0005894628
0.0005894628
0.0005894628
0.0005894628
0.0005894628
0.0005894628
0.0005894628
0.0005894628
0.0005894628
0.0005894628
0.0005894628
0.0005894628
0.0005894628
0.0005894628
0.0005894628
0.0005894628
0.0005894628
0.0005894628
0.0005894628
0.0005894628
0.0005894628
0.0005894628
0.0005894628
0.0005894628
0.0005894628
0.0005894628
0.0005894628
0.0005894628
0.0005894628
0.0005894628
0.0005894628
0.0005894628
0.0005894628
0.0005894628
0.0005894628
0.0005894628
0.0005894628
0.0005894628
0.0005894628
0.0005894628
0.0005894628
0.0005894628
0.0005894628
0.0005894628
0.0005894628
0.0005894628
0.0005894628
0.0005894628
0.0005894628
0.0005894628
0.0005894628
0.0005894628
0.0005894628
0.0005894628
0.0005894628
0.0005894628
0.0005894628
0.0005894628
0.0005894628
0.0005894628
0.0005894628
0.0005894628
0.0005894628
0.0005894628
0.0005894628
0.0005894628
0.0005894628
0.0005894628
0.0005894628
0.0005894628
0.0005894628
0.0005894628
0.0005894628
0.0005894628
0.0005894628
0.0005894628
0.0005894628
0.0005894628
0.0005894628
0.0005894628
0.0005894628
0.0005894628
0.0005894628
0.0005894628
0.0005894628
0.0005894628
0.0005894628
0.0005894628
0.0005894628
0.0005894628
0.0005894628
0.0005894628
0.0005894628
0.0005894628
0.0005894628
0.0005894628
0.0005894628
0.0005894628
0.0005894628
0.0005894628
0.0005894628
0.0005894628
0.0005894628
0.0005894628
0.0005894628
0.0005894628
0.0005894628
0.0005894628
0.0005894628
0.0005894628
0.0005894628
0.0005894628
0.0005894628
0.0005894628
0.0005894628
0.0005894628
0.0005894628
0.0005894628
0.0005894628
0.0005894628
0.0005894628
0.0005894628
0.0005894628
0.0005894628
0.0005894628
0.0005894628
0.0005894628
0.0005894628
0.0005894628
0.0005894628
0.0005894628
0.0005894628
0.0005894628
0.0005894628
0.0005894628
0.0005894628
0.0005894628
0.0005894628
0.0005894628
0.0005894628
0.0005894628
0.0005894628
0.0005894628
0.0005894628
0.0005894628
0.0005894628
0.0005894628
0.0005894628
0.0005894628
0.0005894628
0.0005894628
0.0005894628
0.0005894628
0.0005894628
0.0005894628
0.0005894628
0.0005894628
0.0005894628
0.0005894628
0.0005894628
0.0005894628
0.0005894628
0.0005894628
0.0005894628
0.0005894628
0.0005894628
0.0005894628
0.0005894628
0.0005894628
0.0005894628
0.0005894628
0.0005894628
0.0005894628
0.0005894628
0.0005894628
0.0005894628
0.0005894628
0.0005894628
0.0005894628
0.0005894628
0.0005894628
0.0005894628
0.0005894628
0.0005894628
0.0005894628
0.0005894628
0.0005894628
0.0005894628
0.0005894628
0.0005894628
0.0005894628
0.0005894628
0.0005894628
0.0005894628
0.0005894628
0.0005894628
0.0005894628
0.0005894628
0.0005894628
0.0005894628
0.0005894628
0.0005894628
0.0005894628
0.0005894628
0.0005894628
0.0005894628
0.0005894628
0.0005894628
0.0005894628
0.0005894628
0.0005894628
0.0005894628
0.0005894628
0.0005894628
0.0005894628
0.0005894628
0.0005894628
0.0005894628
0.0005894628
0.0005894628
0.0005894628
0.0005894628
0.0005894628
0.0005894628
0.0005894628
0.0005894628
0.0005894628
0.0005894628
0.0005894628
0.0005894628
0.0005894628
0.0005894628
0.0005894628
0.0005894628
0.0005894628
0.0005894628
0.0005894628
0.0005894628
0.0005894628
0.0005894628
0.0005894628
0.0005894628
0.0005894628
0.0005894628
0.0005894628
0.0005894628
0.0005894628
0.0005894628
0.0005894628
0.0005894628
0.0005894628
0.0005894628
0.0005894628
0.0005894628
0.0005894628
0.0005894628
0.0005894628
0.0005894628
0.0005894628
0.0005894628
0.0005894628
0.0005894628
0.0005894628
0.0005894628
0.0005894628
0.0005894628
0.0005894628
0.0005894628
0.0005894628
0.0005894628
0.0005894628
0.0005894628
0.0005894628
0.0005894628
0.0005894628
0.0005894628
0.0005894628
0.0005894628
0.0005894628
0.0005894628
0.0005894628
0.0005894628
0.0005894628
0.0005894628
0.0005894628
0.0005894628
0.0005894628
0.0005894628
0.0005894628
0.0005894628
0.0005894628
0.0005894628
0.0005894628
0.0005894628
0.0005894628
0.0005894628
0.0005894628
0.0005894628
0.0005894628
0.0005894628
0.0005894628
0.0005894628
0.0005894628


SCALARS b FLOAT 1
LOOKUP_TABLE default
0.02357851
0.02357851
0.02357851
0.02357851
0.02357851
0.02357851
0.02357851
0.02357851
0.02357851
0.02357851
0.02357851
0.02357851
0.02357851
0.02357851
0.02357851
0.02357851
0.02357851
0.02357851
0.02357851
0.02357851
0.02357851
0.02357851
0.02357851
0.02357851
0.02357851
0.02357851
0.02357851
0.02357851
0.02357851
0.02357851
0.02357851
0.02357851
0.02357851
0.02357851
0.02357851
0.02357851
0.02357851
0.02357851
0.02357851
0.02357851
0.02357851
0.02357851
0.02357851
0.02357851
0.02357851
0.02357851
0.02357851
0.02357851
0.02357851
0.02357851
0.02357851
0.02357851
0.02357851
0.02357851
0.02357851
0.02357851
0.02357851
0.02357851
0.02357851
0.02357851
0.02357851
0.02357851
0.02357851
0.02357851
0.02357851
0.02357851
0.02357851
0.02357851
0.02357851
0.02357851
0.02357851
0.02357851
0.02357851
0.02357851
0.02357851
0.02357851
0.02357851
0.02357851
0.02357851
0.02357851
0.02357851
0.02357851
0.02357851
0.02357851
0.02357851
0.02357851
0.02357851
0.02357851
0.02357851
0.02357851
0.02357851
0.02357851
0.02357851
0.02357851
0.02357851
0.02357851
0.02357851
0.02357851
0.02357851
0.02357851
0.02357851
0.02357851
0.02357851
0.02357851
0.02357851
0.02357851
0.02357851
0.02357851
0.02357851
0.02357851
0.02357851
0.02357851
0.02357851
0.02357851
0.02357851
0.02357851
0.02357851
0.02357851
0.02357851
0.02357851
0.02357851
0.02357851
0.02357851
0.02357851
0.02357851
0.02357851
0.02357851
0.02357851
0.02357851
0.02357851
0.02357851
0.02357851
0.02357851
0.02357851
0.02357851
0.02357851
0.02357851
0.02357851
0.02357851
0.02357851
0.02357851
0.02357851
0.02357851
0.02357851
0.02357851
0.02357851
0.02357851
0.02357851
0.02357851
0.02357851
0.02357851
0.02357851
0.02357851
0.02357851
0.02357851
0.02357851
0.02357851
0.02357851
0.02357851
0.02357851
0.02357851
0.02357851
0.02357851
0.02357851
0.02357851
0.02357851
0.02357851
0.02357851
0.02357851
0.02357851
0.02357851
0.02357851
0.02357851
0.02357851
0.02357851
0.02357851
0.02357851
0.02357851
0.02357851
0.02357851
0.02357851
0.02357851
0.02357851
0.02357851
0.02357851
0.02357851
0.02357851
0.02357851
0.02357851
0.02357851
0.02357851
0.02357851
0.02357851
0.02357851
0.02357851
0.02357851
0.02357851
0.02357851
0.02357851
0.02357851
0.02357851
0.02357851
0.02357851
0.02357851
0.02357851
0.02357851
0.02357851
0.02357851
0.02357851
0.02357851
0.02357851
0.02357851
0.02357851
0.02357851
0.02357851
0.02357851
0.02357851
0.02357851
0.02357851
0.02357851
0.02357851
0.02357851
0.02357851
0.02357851
0.02357851
0.02357851
0.02357851
0.02357851
0.02357851
0.02357851
0.02357851
0.02357851
0.02357851
0.02357851
0.02357851
0.02357851
0.02357851
0.02357851
0.02357851
0.02357851
0.02357851
0.02357851
0.02357851
0.02357851
0.02357851
0.02357851
0.02357851
0.02357851
0.02357851
0.02357851
0.02357851
0.02357851
0.02357851
0.02357851
0.02357851
0.02357851
0.02357851
0.02357851
0.02357851
0.02357851
0.02357851
0.02357851
0.02357851
0.02357851
0.02357851
0.02357851
0.02357851
0.02357851
0.02357851
0.02357851
0.02357851
0.02357851
0.02357851
0.02357851
0.02357851
0.02357851
0.02357851
0.02357851
0.02357851
0.02357851
0.02357851
0.02357851
0.02357851
0.02357851
0.02357851
0.02357851
0.02357851
0.02357851
0.02357851
0.02357851
0.02357851
0.02357851
0.02357851
0.02357851
0.02357851
0.02357851
0.02357851
0.02357851
0.02357851
0.02357851
0.02357851
0.02357851
0.02357851
0.02357851
0.02357851
0.02357851
0.02357851
0.02357851
0.02357851
0.02357851
0.02357851
0.02357851
0.02357851
0.02357851
0.02357851
0.02357851
0.02357851
0.02357851
0.02357851
0.02357851
0.02357851
0.02357851
0.02357851
0.02357851
0.02357851
0.02357851
0.02357851
0.02357851
0.02357851
0.02357851
0.02357851
0.02357851
0.02357851
0.02357851
0.02357851
0.02357851
0.02357851
0.02357851
0.02357851
0.02357851
0.02357851
0.02357851
0.02357851
0.02357851
0.02357851
0.02357851
0.02357851
0.02357851
0.02357851
0.02357851


VECTORS d1 FLOAT
0 0.6153864 0.7882256
-0.01104003 0.6250405 0.7805143
-0.02211932 0.6344828 0.7726204
-0.03323222 0.6437107 0.764547
-0.04437315 0.6527217 0.7562972
-0.05553659 0.6615134 0.7478741
-0.06671707 0.6700837 0.7392812
-0.07790919 0.6784305 0.7305219
-0.08910763 0.6865521 0.7215997
-0.1003072 0.6944466 0.7125183
-0.1115026 0.7021127 0.7032816
-0.1226889 0.7095488 0.6938933
-0.133861 0.7167538 0.6843575
-0.1450141 0.7237267 0.6746781
-0.1561433 0.7304666 0.6648593
-0.1672439 0.7369726 0.6549052
-0.1783114 0.7432443 0.6448201
-0.1893412 0.7492812 0.6346083
-0.2003289 0.7550829 0.6242741
-0.2112702 0.7606495 0.6138218
-0.222161 0.7659809 0.603256
-0.2329972 0.7710772 0.5925811
-0.2437748 0.7759387 0.5818015
-0.2544901 0.7805659 0.5709218
-0.2651392 0.7849593 0.5599465
-0.2757185 0.7891197 0.5488801
-0.2862247 0.7930478 0.5377273
-0.2966543 0.7967446 0.5264924
-0.3070042 0.8002111 0.5151802
-0.3172711 0.8034486 0.503795
-0.327452 0.8064583 0.4923415
-0.3375442 0.8092417 0.4808241
-0.3475448 0.8118001 0.4692474
-0.3574513 0.8141354 0.4576158
-0.367261 0.816249 0.4459337
-0.3769717 0.818143 0.4342055
-0.386581 0.819819 0.4224357
-0.3960868 0.8212792 0.4106284
-0.4054871 0.8225255 0.3987881
-0.41478 0.8235601 0.386919
-0.4239636 0.8243852 0.3750252
-0.4330363 0.8250031 0.3631109
-0.4419965 0.825416 0.3511801
-0.4508428 0.8256264 0.339237
-0.4595738 0.8256368 0.3272854
-0.4681883 0.8254497 0.3153293
-0.4766851 0.8250675 0.3033726
-0.4850633 0.8244929 0.291419
-0.4933219 0.8237286 0.2794723
-0.5014601 0.8227772 0.267536
-0.5094772 0.8216414 0.2556138
-0.5173725 0.820324 0.2437093
-0.5251456 0.8188278 0.2318257
-0.532796 0.8171555 0.2199666
-0.5403234 0.8153099 0.2081353
-0.5477276 0.813294 0.1963348
-0.5550083 0.8111105 0.1845685
-0.5621655 0.8087624 0.1728393
-0.5691991 0.8062524 0.1611503
-0.5761094 0.8035835 0.1495045
-0.5828964 0.8007585 0.1379046
-0.5895604 0.7977803 0.1263534
-0.5961016 0.7946518 0.1148538
-0.6025205 0.7913759 0.1034082
-0.6088175 0.7879554 0.0920193
-0.6149931 0.7843932 0.08068954
-0.6210479 0.7806921 0.06942133
-0.6269825 0.776855 0.05821702
-0.6327976 0.7728847 0.04707888
-0.638494 0.768784 0.03600911
-0.6440724 0.7645556 0.02500983
-0.6495337 0.7602024 0.01408311
-0.6548788 0.755727 0.00323093
-0.6601087 0.7511322 -0.007544788
-0.6652243 0.7464207 -0.01824219
-0.6702267 0.7415951 -0.02885948
-0.675117 0.7366581 -0.03939494
-0.6798962 0.7316122 -0.04984691
-0.6845655 0.7264602 -0.0602138
-0.6891261 0.7212044 -0.07049406
-0.6935793 0.7158474 -0.08068622
-0.6979262 0.7103917 -0.09078887
-0.7021681 0.7048398 -0.1008007
-0.7063064 0.6991941 -0.1107203
-0.7103423 0.6934568 -0.1205464
-0.7142772 0.6876305 -0.130278
-0.7181125 0.6817173 -0.1399139
-0.7218496 0.6757196 -0.1494528
-0.7254898 0.6696396 -0.158894
-0.7290347 0.6634795 -0.1682362
-0.7324855 0.6572414 -0.1774787
-0.7358438 0.6509275 -0.1866205
-0.7391111 0.6445399 -0.1956608
-0.7422888 0.6380805 -0.2045987
-0.7453783 0.6315515 -0.2134335
-0.7483812 0.6249548 -0.2221645
-0.7512991 0.6182922 -0.230791
-0.7541332 0.6115657 -0.2393124
-0.7568853 0.6047772 -0.2477281
-0.7595567 0.5979285 -0.2560374
-0.762149 0.5910213 -0.2642399
-0.7646637 0.5840574 -0.2723351
-0.7671022 0.5770385 -0.2803226
-0.7694662 0.5699663 -0.2882018
-0.771757 0.5628423 -0.2959724
-0.7739763 0.5556682 -0.303634
-0.7761254 0.5484456 -0.3111862
-0.7782058 0.5411759 -0.3186289
-0.7802191 0.5338606 -0.3259616
-0.7821667 0.5265012 -0.3331841
-0.7840501 0.5190992 -0.3402962
-0.7858707 0.5116558 -0.3472976
-0.7876299 0.5041725 -0.3541882
-0.7893292 0.4966505 -0.3609677
-0.79097 0.4890911 -0.3676361
-0.7925538 0.4814956 -0.3741932
-0.7940818 0.4738652 -0.3806388
-0.7955555 0.466201 -0.386973
-0.7969763 0.4585043 -0.3931955
-0.7983454 0.4507761 -0.3993063
-0.7996643 0.4430175 -0.4053055
-0.8009342 0.4352297 -0.4111928
-0.8021565 0.4274135 -0.4169684
-0.8033324 0.4195701 -0.4226322
-0.8044632 0.4117005 -0.4281842
-0.8055502 0.4038055 -0.4336244
-0.8065945 0.395886 -0.4389528
-0.8075975 0.3879431 -0.4441694
-0.8085602 0.3799775 -0.4492744
-0.8094839 0.3719902 -0.4542677
-0.8103697 0.3639819 -0.4591494
-0.8112187 0.3559534 -0.4639195
-0.8120322 0.3479055 -0.4685782
-0.812811 0.339839 -0.4731255
-0.8135564 0.3317546 -0.4775614
-0.8142694 0.3236529 -0.481886
-0.8149509 0.3155348 -0.4860995
-0.8156021 0.3074009 -0.490202
-0.8162238 0.2992517 -0.4941934
-0.816817 0.2910881 -0.498074
-0.8173827 0.2829104 -0.5018437
-0.8179218 0.2747195 -0.5055028
-0.8184352 0.2665157 -0.5090513
-0.8189237 0.2582998 -0.5124893
-0.8193881 0.2500722 -0.5158169
-0.8198293 0.2418334 -0.5190342
-0.8202481 0.233584 -0.5221413
-0.8206452 0.2253246 -0.5251383
-0.8210214 0.2170554 -0.5280254
-0.8213773 0.2087771 -0.5308026
-0.8217138 0.2004901 -0.53347
-0.8220313 0.1921948 -0.5360277
-0.8223307 0.1838917 -0.5384758
-0.8226124 0.1755811 -0.5408144
-0.822877 0.1672636 -0.5430435
-0.8231252 0.1589395 -0.5451634
-0.8233575 0.1506091 -0.547174
-0.8235743 0.1422729 -0.5490754
-0.8237761 0.1339313 -0.5508678
-0.8239635 0.1255846 -0.5525511
-0.8241367 0.1172331 -0.5541255
-0.8242963 0.1088772 -0.555591
-0.8244425 0.1005173 -0.5569477
-0.8245758 0.0921537 -0.5581957
-0.8246965 0.08378669 -0.5593349
-0.8248047 0.07541663 -0.5603655
-0.8249009 0.06704383 -0.5612875
-0.8249852 0.05866861 -0.5621009
-0.8250578 0.05029128 -0.5628058
-0.825119 0.04191214 -0.5634022
-0.8251688 0.0335315 -0.5638901
-0.8252074 0.02514967 -0.5642696
-0.825235 0.01676694 -0.5645406
-0.8252515 0.008383621 -0.5647032
-0.8252569 -2.189915e-13 -0.5647575
-0.8252515 -0.008383621 -0.5647032
-0.825235 -0.01676694 -0.5645406
-0.8252074 -0.02514967 -0.5642696
-0.8251688 -0.0335315 -0.5638901
-0.825119 -0.04191214 -0.5634022
-0.8250578 -0.05029128 -0.5628058
-0.8249852 -0.05866861 -0.5621009
-0.8249009 -0.06704383 -0.5612875
-0.8248047 -0.07541663 -0.5603655
-0.8246965 -0.08378669 -0.5593349
-0.8245758 -0.0921537 -0.5581957
-0.8244425 -0.1005173 -0.5569477
-0.8242963 -0.1088772 -0.555591
-0.8241367 -0.1172331 -0.5541255
-0.8239635 -0.1255846 -0.5525511
-0.8237761 -0.1339313 -0.5508678
-0.8235743 -0.1422729 -0.5490754
-0.8233575 -0.1506091 -0.547174
-0.8231252 -0.1589395 -0.5451634
-0.822877 -0.1672636 -0.5430435
-0.8226124 -0.1755811 -0.5408144
-0.8223307 -0.1838917 -0.5384758
-0.8220313 -0.1921948 -0.5360277
-0.8217138 -0.2004901 -0.53347
-0.8213773 -0.2087771 -0.5308026
-0.8210214 -0.2170554 -0.5280254
-0.8206452 -0.2253246 -0.5251383
-0.8202481 -0.233584 -0.5221413
-0.8198293 -0.2418334 -0.5190342
-0.8193881 -0.2500722 -0.5158169
-0.8189237 -0.2582998 -0.5124893
-0.8184352 -0.2665157 -0.5090513
-0.8179218 -0.2747195 -0.5055028
-0.8173827 -0.2829104 -0.5018437
-0.816817 -0.2910881 -0.498074
-0.8162238 -0.2992517 -0.4941934
-0.8156021 -0.3074009 -0.490202
-0.8149509 -0.3155348 -0.4860995
-0.8142694 -0.3236529 -0.481886
-0.8135564 -0.3317546 -0.4775614
-0.812811 -0.339839 -0.4731255
-0.8120322 -0.3479055 -0.4685782
-0.8112187 -0.3559534 -0.4639195
-0.8103697 -0.3639819 -0.4591494
-0.8094839 -0.3719902 -0.4542677
-0.8085602 -0.3799775 -0.4492744
-0.8075975 -0.3879431 -0.4441694
-0.8065945 -0.395886 -0.4389528
-0.8055502 -0.4038055 -0.4336244
-0.8044632 -0.4117005 -0.4281842
-0.8033324 -0.4195701 -0.4226322
-0.8021565 -0.4274135 -0.4169684