# vtk DataFile Version 2.0
Written badly by Kevin Korner
ASCII
DATASET POLYDATA
POINTS 350 FLOAT
0 0 0
0.00286533 0 0
0.005730522 8.111296e-06 2.685335e-05
0.008595282 2.511327e-05 8.135351e-05
0.01145929 5.179853e-05 0.0001642244
0.01432219 8.897025e-05 0.000276122
0.01718361 0.0001374396 0.0004176357
0.02004316 0.0001980232 0.0005892894
0.02290039 0.0002715407 0.0007915435
0.02575488 0.0003588126 0.001024796
0.02860615 0.0004606579 0.001289383
0.03145371 0.0005778919 0.001585583
0.03429708 0.0007113241 0.001913613
0.03713571 0.0008617564 0.002273636
0.0399691 0.001029981 0.002665758
0.04279668 0.001216779 0.003090031
0.0456179 0.001422918 0.003546455
0.0484322 0.00164915 0.004034978
0.051239 0.001896212 0.0045555
0.05403772 0.002164824 0.005107871
0.05682778 0.002455683 0.005691896
0.05960859 0.002769471 0.006307335
0.06237955 0.003106843 0.006953906
0.06514008 0.003468435 0.007631284
0.06788958 0.003854858 0.008339104
0.07062748 0.004266699 0.009076965
0.07335318 0.004704518 0.009844429
0.0760661 0.005168852 0.01064102
0.07876567 0.005660208 0.01146624
0.08145133 0.006179068 0.01231955
0.08412251 0.006725886 0.01320039
0.08677868 0.007301087 0.01410816
0.08941928 0.007905069 0.01504225
0.0920438 0.008538202 0.01600202
0.09465172 0.009200826 0.0169868
0.09724254 0.009893253 0.01799591
0.09981577 0.01061577 0.01902866
0.1023709 0.01136862 0.02008433
0.1049076 0.01215205 0.02116218
0.1074253 0.01296625 0.02226148
0.1099236 0.01381139 0.02338146
0.1124021 0.01468762 0.02452137
0.1148604 0.01559506 0.02568042
0.1172981 0.01653379 0.02685785
0.1197149 0.01750389 0.02805285
0.1221105 0.0185054 0.02926465
0.1244844 0.01953833 0.03049246
0.1268365 0.02060269 0.03173547
0.1291664 0.02169843 0.0329929
0.1314738 0.02282551 0.03426396
0.1337585 0.02398385 0.03554786
0.1360203 0.02517336 0.03684381
0.1382589 0.02639393 0.03815103
0.1404742 0.02764542 0.03946875
0.142666 0.02892768 0.0407962
0.144834 0.03024055 0.04213262
0.1469783 0.03158382 0.04347726
0.1490985 0.0329573 0.04482938
0.1511947 0.03436078 0.04618823
0.1532666 0.03579402 0.04755311
0.1553143 0.03725677 0.04892329
0.1573377 0.03874877 0.05029807
0.1593367 0.04026976 0.05167678
0.1613112 0.04181945 0.05305872
0.1632613 0.04339755 0.05444324
0.1651869 0.04500376 0.05582969
0.167088 0.04663776 0.05721744
0.1689647 0.04829923 0.05860585
0.170817 0.04998785 0.05999432
0.1726448 0.05170328 0.06138225
0.1744483 0.05344518 0.06276908
0.1762275 0.05521321 0.06415422
0.1779825 0.05700701 0.06553712
0.1797133 0.05882622 0.06691726
0.1814201 0.0606705 0.06829411
0.1831029 0.06253946 0.06966716
0.1847618 0.06443275 0.07103592
0.186397 0.06635001 0.0723999
0.1880086 0.06829085 0.07375865
0.1895966 0.0702549 0.07511171
0.1911612 0.07224181 0.07645865
0.1927026 0.07425118 0.07779904
0.1942209 0.07628266 0.07913248
0.1957162 0.07833586 0.08045856
0.1971887 0.08041041 0.08177691
0.1986386 0.08250595 0.08308716
0.2000659 0.0846221 0.08438894
0.201471 0.0867585 0.08568192
0.2028538 0.08891478 0.08696577
0.2042147 0.09109057 0.08824016
0.2055538 0.09328552 0.08950478
0.2068712 0.09549925 0.09075935
0.2081671 0.09773143 0.09200357
0.2094417 0.09998169 0.09323717
0.2106952 0.1022497 0.09445988
0.2119278 0.1045351 0.09567146
0.2131396 0.1068375 0.09687166
0.2143309 0.1091566 0.09806025
0.2155017 0.1114921 0.099237
0.2166523 0.1138436 0.1004017
0.2177829 0.1162108 0.1015541
0.2188937 0.1185934 0.1026941
0.2199848 0.1209911 0.1038215
0.2210564 0.1234035 0.104936
0.2221086 0.1258303 0.1060375
0.2231418 0.1282712 0.1071259
0.224156 0.130726 0.1082009
0.2251514 0.1331943 0.1092625
0.2261282 0.1356757 0.1103105
0.2270866 0.1381701 0.1113447
0.2280267 0.1406772 0.112365
0.2289487 0.1431966 0.1133713
0.2298528 0.145728 0.1143635
0.2307392 0.1482713 0.1153414
0.2316079 0.150826 0.116305
0.2324592 0.1533921 0.1172542
0.2332933 0.1559691 0.1181888
0.2341102 0.1585568 0.1191088
0.2349101 0.1611551 0.120014
0.2356933 0.1637635 0.1209044
0.2364597 0.1663819 0.1217799
0.2372097 0.1690101 0.1226404
0.2379433 0.1716477 0.1234859
0.2386606 0.1742946 0.1243163
0.2393619 0.1769505 0.1251314
0.2400472 0.1796152 0.1259314
0.2407166 0.1822884 0.126716
0.2413704 0.18497 0.1274853
0.2420086 0.1876597 0.1282391
0.2426314 0.1903573 0.1289775
0.2432389 0.1930626 0.1297004
0.2438311 0.1957754 0.1304077
0.2444083 0.1984954 0.1310994
0.2449705 0.2012225 0.1317754
0.2455178 0.2039564 0.1324358
0.2460505 0.206697 0.1330805
0.2465684 0.2094441 0.1337094
0.2470718 0.2121974 0.1343225
0.2475608 0.2149568 0.1349197
0.2480355 0.2177221 0.1355012
0.2484958 0.2204931 0.1360667
0.2489421 0.2232695 0.1366164
0.2493742 0.2260514 0.1371501
0.2497924 0.2288383 0.1376678
0.2501967 0.2316303 0.1381696
0.2505872 0.234427 0.1386554
0.2509639 0.2372283 0.1391251
0.2513269 0.2400341 0.1395788
0.2516764 0.2428442 0.1400165
0.2520123 0.2456584 0.140438
0.2523348 0.2484765 0.1408435
0.2526439 0.2512983 0.1412329
0.2529396 0.2541238 0.1416061
0.2532221 0.2569527 0.1419632
0.2534913 0.2597849 0.1423042
0.2537474 0.2626203 0.142629
0.2539904 0.2654585 0.1429376
0.2542203 0.2682996 0.14323
0.2544372 0.2711433 0.1435063
0.2546411 0.2739896 0.1437663
0.254832 0.2768381 0.1440101
0.2550101 0.2796888 0.1442377
0.2551753 0.2825416 0.1444491
0.2553277 0.2853962 0.1446443
0.2554672 0.2882525 0.1448232
0.255594 0.2911104 0.1449858
0.2557081 0.2939697 0.1451322
0.2558094 0.2968303 0.1452624
0.255898 0.299692 0.1453763
0.2559739 0.3025547 0.1454739
0.2560371 0.3054181 0.1455552
0.2560877 0.3082823 0.1456203
0.2561256 0.3111469 0.1456692
0.2561509 0.314012 0.1457017
0.2561635 0.3168772 0.145718
0.2561635 0.3197426 0.145718
0.2561509 0.3226078 0.1457017
0.2561256 0.3254728 0.1456692
0.2560877 0.3283375 0.1456203
0.2560371 0.3312016 0.1455552
0.2559739 0.3340651 0.1454739
0.255898 0.3369278 0.1453763
0.2558094 0.3397895 0.1452624
0.2557081 0.3426501 0.1451322
0.255594 0.3455094 0.1449858
0.2554672 0.3483673 0.1448232
0.2553277 0.3512236 0.1446443
0.2551753 0.3540782 0.1444491
0.2550101 0.356931 0.1442377
0.254832 0.3597817 0.1440101
0.2546411 0.3626302 0.1437663
0.2544372 0.3654764 0.1435063
0.2542203 0.3683202 0.14323
0.2539904 0.3711612 0.1429376
0.2537474 0.3739995 0.142629
0.2534913 0.3768348 0.1423042
0.2532221 0.379667 0.1419632
0.2529396 0.382496 0.1416061
0.2526439 0.3853214 0.1412329
0.2523348 0.3881433 0.1408435
0.2520123 0.3909614 0.140438
0.2516764 0.3937756 0.1400165
0.2513269 0.3965856 0.1395788
0.2509639 0.3993914 0.1391251
0.2505872 0.4021928 0.1386554
0.2501967 0.4049895 0.1381696
0.2497924 0.4077814 0.1376678
0.2493742 0.4105684 0.1371501
0.2489421 0.4133502 0.1366164
0.2484958 0.4161267 0.1360667
0.2480355 0.4188977 0.1355012
0.2475608 0.421663 0.1349197
0.2470718 0.4244224 0.1343225
0.2465684 0.4271757 0.1337094
0.2460505 0.4299227 0.1330805
0.2455178 0.4326633 0.1324358
0.2449705 0.4353973 0.1317754
0.2444083 0.4381244 0.1310994
0.2438311 0.4408444 0.1304077
0.2432389 0.4435571 0.1297004
0.2426314 0.4462624 0.1289775
0.2420086 0.44896 0.1282391
0.2413704 0.4516497 0.1274853
0.2407166 0.4543313 0.126716
0.2400472 0.4570046 0.1259314
0.2393619 0.4596693 0.1251314
0.2386606 0.4623252 0.1243163
0.2379433 0.4649721 0.1234859
0.2372097 0.4676097 0.1226404
0.2364597 0.4702379 0.1217799
0.2356933 0.4728563 0.1209044
0.2349101 0.4754647 0.120014
0.2341102 0.4780629 0.1191088
0.2332933 0.4806507 0.1181888
0.2324592 0.4832277 0.1172542
0.2316079 0.4857937 0.116305
0.2307392 0.4883485 0.1153414
0.2298528 0.4908918 0.1143635
0.2289487 0.4934232 0.1133713
0.2280267 0.4959426 0.112365
0.2270866 0.4984496 0.1113447
0.2261282 0.500944 0.1103105
0.2251514 0.5034255 0.1092625
0.224156 0.5058938 0.1082009
0.2231418 0.5083485 0.1071259
0.2221086 0.5107895 0.1060375
0.2210564 0.5132163 0.104936
0.2199848 0.5156287 0.1038215
0.2188937 0.5180263 0.1026941
0.2177829 0.5204089 0.1015541
0.2166523 0.5227762 0.1004017
0.2155017 0.5251277 0.099237
0.2143309 0.5274632 0.09806025
0.2131396 0.5297823 0.09687166
0.2119278 0.5320847 0.09567146
0.2106952 0.5343701 0.09445988
0.2094417 0.5366381 0.09323717
0.2081671 0.5388883 0.09200357
0.2068712 0.5411205 0.09075935
0.2055538 0.5433343 0.08950478
0.2042147 0.5455292 0.08824016
0.2028538 0.547705 0.08696577
0.201471 0.5498613 0.08568192
0.2000659 0.5519977 0.08438894
0.1986386 0.5541138 0.08308716
0.1971887 0.5562094 0.08177691
0.1957162 0.5582839 0.08045856
0.1942209 0.5603371 0.07913248
0.1927026 0.5623686 0.07779904
0.1911612 0.564378 0.07645865
0.1895966 0.5663649 0.07511171
0.1880086 0.5683289 0.07375865
0.186397 0.5702698 0.0723999
0.1847618 0.572187 0.07103592
0.1831029 0.5740803 0.06966716
0.1814201 0.5759493 0.06829411
0.1797133 0.5777935 0.06691726
0.1779825 0.5796128 0.06553712
0.1762275 0.5814066 0.06415422
0.1744483 0.5831746 0.06276908
0.1726448 0.5849165 0.06138225
0.170817 0.5866319 0.05999432
0.1689647 0.5883205 0.05860585
0.167088 0.589982 0.05721744
0.1651869 0.591616 0.05582969
0.1632613 0.5932222 0.05444324
0.1613112 0.5948003 0.05305872
0.1593367 0.59635 0.05167678
0.1573377 0.597871 0.05029807
0.1553143 0.599363 0.04892329
0.1532666 0.6008258 0.04755311
0.1511947 0.602259 0.04618823
0.1490985 0.6036625 0.04482938
0.1469783 0.605036 0.04347726
0.144834 0.6063792 0.04213262
0.142666 0.6076921 0.0407962
0.1404742 0.6089743 0.03946875
0.1382589 0.6102258 0.03815103
0.1360203 0.6114464 0.03684381
0.1337585 0.6126359 0.03554786
0.1314738 0.6137943 0.03426396
0.1291664 0.6149213 0.0329929
0.1268365 0.6160171 0.03173547
0.1244844 0.6170814 0.03049246
0.1221105 0.6181144 0.02926465
0.1197149 0.6191159 0.02805285
0.1172981 0.620086 0.02685785
0.1148604 0.6210247 0.02568042
0.1124021 0.6219322 0.02452137
0.1099236 0.6228084 0.02338146
0.1074253 0.6236535 0.02226148
0.1049076 0.6244677 0.02116218
0.1023709 0.6252511 0.02008433
0.09981577 0.626004 0.01902866
0.09724254 0.6267265 0.01799591
0.09465172 0.6274189 0.0169868
0.0920438 0.6280816 0.01600202
0.08941928 0.6287147 0.01504225
0.08677868 0.6293187 0.01410816
0.08412251 0.6298939 0.01320039
0.08145133 0.6304407 0.01231955
0.07876567 0.6309596 0.01146624
0.0760661 0.6314509 0.01064102
0.07335318 0.6319153 0.009844429
0.07062748 0.6323531 0.009076965
0.06788958 0.6327649 0.008339104
0.06514008 0.6331513 0.007631284
0.06237955 0.6335129 0.006953906
0.05960859 0.6338503 0.006307335
0.05682778 0.6341641 0.005691896
0.05403772 0.6344549 0.005107871
0.051239 0.6347236 0.0045555
0.0484322 0.6349706 0.004034978
0.0456179 0.6351969 0.003546455
0.04279668 0.635403 0.003090031
0.0399691 0.6355898 0.002665758
0.03713571 0.635758 0.002273636
0.03429708 0.6359084 0.001913613
0.03145371 0.6360419 0.001585583
0.02860615 0.6361591 0.001289383
0.02575488 0.636261 0.001024796
0.02290039 0.6363482 0.0007915435
0.02004316 0.6364217 0.0005892894
0.01718361 0.6364823 0.0004176357
0.01432219 0.6365308 0.000276122
0.01145929 0.636568 0.0001642244
0.008595282 0.6365947 8.135351e-05
0.005730522 0.6366117 2.685335e-05
0.00286533 0.6366198 0
0 0.6366198 0

LINES 349 1047
2 0 1
2 1 2
2 2 3
2 3 4
2 4 5
2 5 6
2 6 7
2 7 8
2 8 9
2 9 10
2 10 11
2 11 12
2 12 13
2 13 14
2 14 15
2 15 16
2 16 17
2 17 18
2 18 19
2 19 20
2 20 21
2 21 22
2 22 23
2 23 24
2 24 25
2 25 26
2 26 27
2 27 28
2 28 29
2 29 30
2 30 31
2 31 32
2 32 33
2 33 34
2 34 35
2 35 36
2 36 37
2 37 38
2 38 39
2 39 40
2 40 41
2 41 42
2 42 43
2 43 44
2 44 45
2 45 46
2 46 47
2 47 48
2 48 49
2 49 50
2 50 51
2 51 52
2 52 53
2 53 54
2 54 55
2 55 56
2 56 57
2 57 58
2 58 59
2 59 60
2 60 61
2 61 62
2 62 63
2 63 64
2 64 65
2 65 66
2 66 67
2 67 68
2 68 69
2 69 70
2 70 71
2 71 72
2 72 73
2 73 74
2 74 75
2 75 76
2 76 77
2 77 78
2 78 79
2 79 80
2 80 81
2 81 82
2 82 83
2 83 84
2 84 85
2 85 86
2 86 87
2 87 88
2 88 89
2 89 90
2 90 91
2 91 92
2 92 93
2 93 94
2 94 95
2 95 96
2 96 97
2 97 98
2 98 99
2 99 100
2 100 101
2 101 102
2 102 103
2 103 104
2 104 105
2 105 106
2 106 107
2 107 108
2 108 109
2 109 110
2 110 111
2 111 112
2 112 113
2 113 114
2 114 115
2 115 116
2 116 117
2 117 118
2 118 119
2 119 120
2 120 121
2 121 122
2 122 123
2 123 124
2 124 125
2 125 126
2 126 127
2 127 128
2 128 129
2 129 130
2 130 131
2 131 132
2 132 133
2 133 134
2 134 135
2 135 136
2 136 137
2 137 138
2 138 139
2 139 140
2 140 141
2 141 142
2 142 143
2 143 144
2 144 145
2 145 146
2 146 147
2 147 148
2 148 149
2 149 150
2 150 151
2 151 152
2 152 153
2 153 154
2 154 155
2 155 156
2 156 157
2 157 158
2 158 159
2 159 160
2 160 161
2 161 162
2 162 163
2 163 164
2 164 165
2 165 166
2 166 167
2 167 168
2 168 169
2 169 170
2 170 171
2 171 172
2 172 173
2 173 174
2 174 175
2 175 176
2 176 177
2 177 178
2 178 179
2 179 180
2 180 181
2 181 182
2 182 183
2 183 184
2 184 185
2 185 186
2 186 187
2 187 188
2 188 189
2 189 190
2 190 191
2 191 192
2 192 193
2 193 194
2 194 195
2 195 196
2 196 197
2 197 198
2 198 199
2 199 200
2 200 201
2 201 202
2 202 203
2 203 204
2 204 205
2 205 206
2 206 207
2 207 208
2 208 209
2 209 210
2 210 211
2 211 212
2 212 213
2 213 214
2 214 215
2 215 216
2 216 217
2 217 218
2 218 219
2 219 220
2 220 221
2 221 222
2 222 223
2 223 224
2 224 225
2 225 226
2 226 227
2 227 228
2 228 229
2 229 230
2 230 231
2 231 232
2 232 233
2 233 234
2 234 235
2 235 236
2 236 237
2 237 238
2 238 239
2 239 240
2 240 241
2 241 242
2 242 243
2 243 244
2 244 245
2 245 246
2 246 247
2 247 248
2 248 249
2 249 250
2 250 251
2 251 252
2 252 253
2 253 254
2 254 255
2 255 256
2 256 257
2 257 258
2 258 259
2 259 260
2 260 261
2 261 262
2 262 263
2 263 264
2 264 265
2 265 266
2 266 267
2 267 268
2 268 269
2 269 270
2 270 271
2 271 272
2 272 273
2 273 274
2 274 275
2 275 276
2 276 277
2 277 278
2 278 279
2 279 280
2 280 281
2 281 282
2 282 283
2 283 284
2 284 285
2 285 286
2 286 287
2 287 288
2 288 289
2 289 290
2 290 291
2 291 292
2 292 293
2 293 294
2 294 295
2 295 296
2 296 297
2 297 298
2 298 299
2 299 300
2 300 301
2 301 302
2 302 303
2 303 304
2 304 305
2 305 306
2 306 307
2 307 308
2 308 309
2 309 310
2 310 311
2 311 312
2 312 313
2 313 314
2 314 315
2 315 316
2 316 317
2 317 318
2 318 319
2 319 320
2 320 321
2 321 322
2 322 323
2 323 324
2 324 325
2 325 326
2 326 327
2 327 328
2 328 329
2 329 330
2 330 331
2 331 332
2 332 333
2 333 334
2 334 335
2 335 336
2 336 337
2 337 338
2 338 339
2 339 340
2 340 341
2 341 342
2 342 343
2 343 344
2 344 345
2 345 346
2 346 347
2 347 348
2 348 349


POINT_DATA 350
SCALARS a FLOAT 1
LOOKUP_TABLE default
0.0005894628
0.0005894628
0.0005894628
0.0005894628
0.0005894628
0.0005894628
0.0005894628
0.0005894628
0.0005894628
0.0005894628
0.0005894628
0.0005894628
0.0005894628
0.0005894628
0.0005894628
0.0005894628
0.0005894628
0.0005894628
0.0005894628
0.0005894628
0.0005894628
0.0005894628
0.0005894628
0.0005894628
0.0005894628
0.0005894628
0.0005894628
0.0005894628
0.0005894628
0.0005894628
0.0005894628
0.0005894628
0.0005894628
0.0005894628
0.0005894628
0.0005894628
0.0005894628
0.0005894628
0.0005894628
0.0005894628
0.0005894628
0.0005894628
0.0005894628
0.0005894628
0.0005894628
0.0005894628
0.0005894628
0.0005894628
0.0005894628
0.0005894628
0.0005894628
0.0005894628
0.0005894628
0.0005894628
0.0005894628
0.0005894628
0.0005894628
0.0005894628
0.0005894628
0.0005894628
0.0005894628
0.0005894628
0.0005894628
0.0005894628
0.0005894628
0.0005894628
0.0005894628
0.0005894628
0.0005894628
0.0005894628
0.0005894628
0.0005894628
0.0005894628
0.0005894628
0.0005894628
0.0005894628
0.0005894628
0.0005894628
0.0005894628
0.0005894628
0.0005894628
0.0005894628
0.0005894628
0.0005894628
0.0005894628
0.0005894628
0.0005894628
0.0005894628
0.0005894628
0.0005894628
0.0005894628
0.0005894628
0.0005894628
0.0005894628
0.0005894628
0.0005894628
0.0005894628
0.0005894628
0.0005894628
0.0005894628
0.0005894628
0.0005894628
0.0005894628
0.0005894628
0.0005894628
0.0005894628
0.0005894628
0.0005894628
0.0005894628
0.0005894628
0.0005894628
0.0005894628
0.0005894628
0.0005894628
0.0005894628
0.0005894628
0.0005894628
0.0005894628
0.0005894628
0.0005894628
0.0005894628
0.0005894628
0.0005894628
0.0005894628
0.0005894628
0.0005894628
0.0005894628
0.0005894628
0.0005894628
0.0005894628
0.0005894628
0.0005894628
0.0005894628
0.0005894628
0.0005894628
0.0005894628
0.0005894628
0.0005894628
0.0005894628
0.0005894628
0.0005894628
0.0005894628
0.0005894628
0.0005894628
0.0005894628
0.0005894628
0.0005894628
0.0005894628
0.0005894628
0.0005894628
0.0005894628
0.0005894628
0.0005894628
0.0005894628
0.0005894628
0.0005894628
0.0005894628
0.0005894628
0.0005894628
0.0005894628
0.0005894628
0.0005894628
0.0005894628
0.0005894628
0.0005894628
0.0005894628
0.0005894628
0.0005894628
0.0005894628
0.0005894628
0.0005894628
0.0005894628
0.0005894628
0.0005894628
0.0005894628
0.0005894628
0.0005894628
0.0005894628
0.0005894628
0.0005894628
0.0005894628
0.0005894628
0.0005894628
0.0005894628
0.0005894628
0.0005894628
0.0005894628
0.0005894628
0.0005894628
0.0005894628
0.0005894628
0.0005894628
0.0005894628
0.0005894628
0.0005894628
0.0005894628
0.0005894628
0.0005894628
0.0005894628
0.0005894628
0.0005894628
0.0005894628
0.0005894628
0.0005894628
0.0005894628
0.0005894628
0.0005894628
0.0005894628
0.0005894628
0.0005894628
0.0005894628
0.0005894628
0.0005894628
0.0005894628
0.0005894628
0.0005894628
0.0005894628
0.0005894628
0.0005894628
0.0005894628
0.0005894628
0.0005894628
0.0005894628
0.0005894628
0.0005894628
0.0005894628
0.0005894628
0.0005894628
0.0005894628
0.0005894628
0.0005894628
0.0005894628
0.0005894628
0.0005894628
0.0005894628
0.0005894628
0.0005894628
0.0005894628
0.0005894628
0.0005894628
0.0005894628
0.0005894628
0.0005894628
0.0005894628
0.0005894628
0.0005894628
0.0005894628
0.0005894628
0.0005894628
0.0005894628
0.0005894628
0.0005894628
0.0005894628
0.0005894628
0.0005894628
0.0005894628
0.0005894628
0.0005894628
0.0005894628
0.0005894628
0.0005894628
0.0005894628
0.0005894628
0.0005894628
0.0005894628
0.0005894628
0.0005894628
0.0005894628
0.0005894628
0.0005894628
0.0005894628
0.0005894628
0.0005894628
0.0005894628
0.0005894628
0.0005894628
0.0005894628
0.0005894628
0.0005894628
0.0005894628
0.0005894628
0.0005894628
0.0005894628
0.0005894628
0.0005894628
0.0005894628
0.0005894628
0.0005894628
0.0005894628
0.0005894628
0.0005894628
0.0005894628
0.0005894628
0.0005894628
0.0005894628
0.0005894628
0.0005894628
0.0005894628
0.0005894628
0.0005894628
0.0005894628
0.0005894628
0.0005894628
0.0005894628
0.0005894628
0.0005894628
0.0005894628
0.0005894628
0.0005894628
0.0005894628
0.0005894628
0.0005894628
0.0005894628
0.0005894628
0.0005894628
0.0005894628
0.0005894628
0.0005894628
0.0005894628
0.0005894628
0.0005894628
0.0005894628
0.0005894628
0.0005894628
0.0005894628
0.0005894628
0.0005894628
0.0005894628
0.0005894628
0.0005894628
0.0005894628
0.0005894628
0.0005894628
0.0005894628
0.0005894628
0.0005894628
0.0005894628
0.0005894628
0.0005894628
0.0005894628
0.0005894628
0.0005894628
0.0005894628
0.0005894628
0.0005894628
0.0005894628
0.0005894628
0.0005894628
0.0005894628
0.0005894628


SCALARS b FLOAT 1
LOOKUP_TABLE default
0.02357851
0.02357851
0.02357851
0.02357851
0.02357851
0.02357851
0.02357851
0.02357851
0.02357851
0.02357851
0.02357851
0.02357851
0.02357851
0.02357851
0.02357851
0.02357851
0.02357851
0.02357851
0.02357851
0.02357851
0.02357851
0.02357851
0.02357851
0.02357851
0.02357851
0.02357851
0.02357851
0.02357851
0.02357851
0.02357851
0.02357851
0.02357851
0.02357851
0.02357851
0.02357851
0.02357851
0.02357851
0.02357851
0.02357851
0.02357851
0.02357851
0.02357851
0.02357851
0.02357851
0.02357851
0.02357851
0.02357851
0.02357851
0.02357851
0.02357851
0.02357851
0.02357851
0.02357851
0.02357851
0.02357851
0.02357851
0.02357851
0.02357851
0.02357851
0.02357851
0.02357851
0.02357851
0.02357851
0.02357851
0.02357851
0.02357851
0.02357851
0.02357851
0.02357851
0.02357851
0.02357851
0.02357851
0.02357851
0.02357851
0.02357851
0.02357851
0.02357851
0.02357851
0.02357851
0.02357851
0.02357851
0.02357851
0.02357851
0.02357851
0.02357851
0.02357851
0.02357851
0.02357851
0.02357851
0.02357851
0.02357851
0.02357851
0.02357851
0.02357851
0.02357851
0.02357851
0.02357851
0.02357851
0.02357851
0.02357851
0.02357851
0.02357851
0.02357851
0.02357851
0.02357851
0.02357851
0.02357851
0.02357851
0.02357851
0.02357851
0.02357851
0.02357851
0.02357851
0.02357851
0.02357851
0.02357851
0.02357851
0.02357851
0.02357851
0.02357851
0.02357851
0.02357851
0.02357851
0.02357851
0.02357851
0.02357851
0.02357851
0.02357851
0.02357851
0.02357851
0.02357851
0.02357851
0.02357851
0.02357851
0.02357851
0.02357851
0.02357851
0.02357851
0.02357851
0.02357851
0.02357851
0.02357851
0.02357851
0.02357851
0.02357851
0.02357851
0.02357851
0.02357851
0.02357851
0.02357851
0.02357851
0.02357851
0.02357851
0.02357851
0.02357851
0.02357851
0.02357851
0.02357851
0.02357851
0.02357851
0.02357851
0.02357851
0.02357851
0.02357851
0.02357851
0.02357851
0.02357851
0.02357851
0.02357851
0.02357851
0.02357851
0.02357851
0.02357851
0.02357851
0.02357851
0.02357851
0.02357851
0.02357851
0.02357851
0.02357851
0.02357851
0.02357851
0.02357851
0.02357851
0.02357851
0.02357851
0.02357851
0.02357851
0.02357851
0.02357851
0.02357851
0.02357851
0.02357851
0.02357851
0.02357851
0.02357851
0.02357851
0.02357851
0.02357851
0.02357851
0.02357851
0.02357851
0.02357851
0.02357851
0.02357851
0.02357851
0.02357851
0.02357851
0.02357851
0.02357851
0.02357851
0.02357851
0.02357851
0.02357851
0.02357851
0.02357851
0.02357851
0.02357851
0.02357851
0.02357851
0.02357851
0.02357851
0.02357851
0.02357851
0.02357851
0.02357851
0.02357851
0.02357851
0.02357851
0.02357851
0.02357851
0.02357851
0.02357851
0.02357851
0.02357851
0.02357851
0.02357851
0.02357851
0.02357851
0.02357851
0.02357851
0.02357851
0.02357851
0.02357851
0.02357851
0.02357851
0.02357851
0.02357851
0.02357851
0.02357851
0.02357851
0.02357851
0.02357851
0.02357851
0.02357851
0.02357851
0.02357851
0.02357851
0.02357851
0.02357851
0.02357851
0.02357851
0.02357851
0.02357851
0.02357851
0.02357851
0.02357851
0.02357851
0.02357851
0.02357851
0.02357851
0.02357851
0.02357851
0.02357851
0.02357851
0.02357851
0.02357851
0.02357851
0.02357851
0.02357851
0.02357851
0.02357851
0.02357851
0.02357851
0.02357851
0.02357851
0.02357851
0.02357851
0.02357851
0.02357851
0.02357851
0.02357851
0.02357851
0.02357851
0.02357851
0.02357851
0.02357851
0.02357851
0.02357851
0.02357851
0.02357851
0.02357851
0.02357851
0.02357851
0.02357851
0.02357851
0.02357851
0.02357851
0.02357851
0.02357851
0.02357851
0.02357851
0.02357851
0.02357851
0.02357851
0.02357851
0.02357851
0.02357851
0.02357851
0.02357851
0.02357851
0.02357851
0.02357851
0.02357851
0.02357851
0.02357851
0.02357851
0.02357851
0.02357851
0.02357851
0.02357851
0.02357851
0.02357851
0.02357851
0.02357851
0.02357851
0.02357851
0.02357851
0.02357851
0.02357851
0.02357851
0.02357851
0.02357851
0.02357851
0.02357851
0.02357851
0.02357851
0.02357851
0.02357851
0.02357851


VECTORS d1 FLOAT
0 0.2789911 0.9602937
-0.00978977 0.2960903 0.9551098
-0.01992204 0.3130415 0.9495305
-0.03037514 0.3298316 0.943551
-0.04112779 0.3464476 0.9371673
-0.05215913 0.3628765 0.9303763
-0.06344867 0.3791055 0.9231757
-0.07497628 0.3951219 0.9155639
-0.08672216 0.4109131 0.9075405
-0.09866684 0.4264669 0.8991056
-0.1107912 0.4417714 0.8902603
-0.1230764 0.4568147 0.8810065
-0.1355039 0.4715857 0.871347
-0.1480557 0.4860732 0.8612853
-0.1607138 0.5002668 0.8508256
-0.1734607 0.5141563 0.839973
-0.1862793 0.5277321 0.8287333
-0.1991527 0.5409849 0.8171129
-0.2120646 0.5539061 0.805119
-0.2249988 0.5664874 0.7927594
-0.2379397 0.5787213 0.7800425
-0.250872 0.5906006 0.7669773
-0.2637809 0.6021187 0.7535733
-0.2766518 0.6132697 0.7398406
-0.2894708 0.6240482 0.7257896
-0.3022244 0.6344493 0.7114313
-0.3148994 0.6444689 0.6967771
-0.3274832 0.6541031 0.6818386
-0.3399637 0.663349 0.666628
-0.3523291 0.672204 0.6511574
-0.3645684 0.6806661 0.6354396
-0.3766709 0.688734 0.6194873
-0.3886263 0.6964069 0.6033134
-0.4004251 0.7036844 0.586931
-0.4120581 0.7105668 0.5703534
-0.4235167 0.7170548 0.5535938
-0.4347927 0.7231497 0.5366655
-0.4458786 0.7288532 0.5195819
-0.4567672 0.7341675 0.5023562
-0.467452 0.7390954 0.4850017
-0.4779269 0.7436398 0.4675316
-0.4881862 0.7478043 0.4499588
-0.498225 0.7515928 0.4322963
-0.5080385 0.7550096 0.4145569
-0.5176227 0.7580592 0.3967531
-0.5269738 0.7607467 0.3788972
-0.5360887 0.7630773 0.3610014
-0.5449645 0.7650565 0.3430776
-0.553599 0.7666901 0.3251375
-0.5619902 0.7679843 0.3071924
-0.5701366 0.7689452 0.2892533
-0.5780371 0.7695794 0.2713311
-0.585691 0.7698936 0.2534363
-0.5930978 0.7698945 0.235579
-0.6002576 0.7695892 0.217769
-0.6071707 0.7689847 0.2000158
-0.6138378 0.7680882 0.1823286
-0.6202597 0.7669071 0.1647162
-0.6264379 0.7654486 0.1471871
-0.6323738 0.7637202 0.1297495
-0.6380692 0.7617292 0.112411
-0.6435262 0.7594833 0.09517918
-0.6487471 0.7569898 0.0780611
-0.6537345 0.7542563 0.06106352
-0.6584909 0.75129 0.04419285
-0.6630195 0.7480985 0.02745515
-0.6673232 0.7446891 0.01085619
-0.6714054 0.7410691 -0.005598616
-0.6752696 0.7372457 -0.02190418
-0.6789192 0.7332261 -0.0380557
-0.682358 0.7290174 -0.05404872
-0.6855898 0.7246265 -0.06987906
-0.6886186 0.7200603 -0.08554282
-0.6914485 0.7153255 -0.1010364
-0.6940835 0.7104289 -0.1163566
-0.6965279 0.705377 -0.1315002
-0.6987858 0.700176 -0.1464645
-0.7008618 0.6948325 -0.161247
-0.7027601 0.6893524 -0.1758453
-0.7044852 0.6837417 -0.1902575
-0.7060415 0.6780064 -0.2044817
-0.7074335 0.6721522 -0.2185163
-0.7086657 0.6661845 -0.2323599
-0.7097426 0.660109 -0.2460113
-0.7106688 0.6539308 -0.2594695
-0.7114487 0.6476551 -0.2727338
-0.7120868 0.6412868 -0.2858035
-0.7125877 0.6348309 -0.298678
-0.7129558 0.6282919 -0.3113572
-0.7131956 0.6216745 -0.3238408
-0.7133115 0.614983 -0.3361288
-0.7133079 0.6082217 -0.3482214
-0.7131892 0.6013947 -0.3601188
-0.7129597 0.594506 -0.3718214
-0.7126236 0.5875593 -0.3833297
-0.7121853 0.5805584 -0.3946442
-0.7116489 0.5735068 -0.4057657
-0.7110185 0.5664079 -0.416695
-0.7102983 0.5592651 -0.4274329
-0.7094923 0.5520813 -0.4379804
-0.7086045 0.5448598 -0.4483386
-0.7076388 0.5376033 -0.4585085
-0.7065991 0.5303146 -0.4684914
-0.7054891 0.5229964 -0.4782884
-0.7043128 0.5156513 -0.4879009
-0.7030736 0.5082816 -0.4973302
-0.7017754 0.5008896 -0.5065777
-0.7004216 0.4934776 -0.5156447
-0.6990157 0.4860476 -0.5245329
-0.6975612 0.4786017 -0.5332436
-0.6960615 0.4711417 -0.5417784
-0.6945199 0.4636695 -0.5501389
-0.6929396 0.4561867 -0.5583265
-0.6913238 0.4486949 -0.566343
-0.6896756 0.4411956 -0.5741898
-0.6879982 0.4336904 -0.5818687
-0.6862945 0.4261804 -0.5893811
-0.6845674 0.4186671 -0.5967289
-0.6828198 0.4111516 -0.6039135
-0.6810545 0.403635 -0.6109366
-0.6792742 0.3961184 -0.6177999
-0.6774817 0.3886028 -0.6245049
-0.6756796 0.3810889 -0.6310534
-0.6738704 0.3735778 -0.6374468
-0.6720566 0.3660701 -0.6436868
-0.6702407 0.3585666 -0.6497749
-0.668425 0.351068 -0.6557128
-0.6666119 0.3435748 -0.6615021
-0.6648036 0.3360876 -0.6671441
-0.6630024 0.3286069 -0.6726405
-0.6612105 0.3211331 -0.6779928
-0.6594298 0.3136667 -0.6832024
-0.6576624 0.3062081 -0.6882708
-0.6559104 0.2987574 -0.6931995
-0.6541757 0.2913151 -0.6979898
-0.6524601 0.2838812 -0.7026431
-0.6507655 0.2764561 -0.7071608
-0.6490936 0.2690399 -0.7115441
-0.6474461 0.2616327 -0.7157946
-0.6458248 0.2542345 -0.7199132
-0.6442313 0.2468456 -0.7239015
-0.642667 0.2394657 -0.7277604
-0.6411336 0.2320951 -0.7314913
-0.6396325 0.2247336 -0.7350953
-0.6381651 0.2173812 -0.7385734
-0.6367328 0.2100378 -0.7419269
-0.6353369 0.2027033 -0.7451566
-0.6339787 0.1953775 -0.7482638
-0.6326593 0.1880604 -0.7512493
-0.6313801 0.1807518 -0.754114
-0.630142 0.1734514 -0.756859
-0.6289463 0.1661591 -0.7594851
-0.6277939 0.1588747 -0.7619932
-0.6266858 0.1515979 -0.7643841
-0.625623 0.1443284 -0.7666584
-0.6246064 0.1370661 -0.7688171
-0.6236367 0.1298105 -0.7708608
-0.622715 0.1225615 -0.7727902
-0.6218418 0.1153187 -0.7746059
-0.621018 0.1080818 -0.7763086
-0.6202441 0.1008505 -0.7778987
-0.6195209 0.09362445 -0.7793769
-0.6188489 0.08640331 -0.7807436
-0.6182287 0.07918674 -0.7819992
-0.6176607 0.07197437 -0.7831443
-0.6171454 0.06476585 -0.7841791
-0.6166833 0.05756081 -0.7851041
-0.6162747 0.05035887 -0.7859195
-0.6159199 0.04315965 -0.7866256
-0.6156192 0.03596278 -0.7872227
-0.6153729 0.02876787 -0.787711
-0.6151811 0.02157453 -0.7880906
-0.615044 0.01438236 -0.7883616
-0.6149617 0.007190984 -0.7885242
-0.6149342 -5.884182e-13 -0.7885784
-0.6149617 -0.007190984 -0.7885242
-0.615044 -0.01438236 -0.7883616
-0.6151811 -0.02157453 -0.7880906
-0.6153729 -0.02876787 -0.787711
-0.6156192 -0.03596278 -0.7872227
-0.6159199 -0.04315965 -0.7866256
-0.6162747 -0.05035887 -0.7859195
-0.6166833 -0.05756081 -0.7851041
-0.6171454 -0.06476585 -0.7841791
-0.6176607 -0.07197437 -0.7831443
-0.6182287 -0.07918674 -0.7819992
-0.6188489 -0.08640331 -0.7807436
-0.6195209 -0.09362445 -0.7793769
-0.6202441 -0.1008505 -0.7778987
-0.621018 -0.1080818 -0.7763086
-0.6218418 -0.1153187 -0.7746059
-0.622715 -0.1225615 -0.7727902
-0.6236367 -0.1298105 -0.7708608
-0.6246064 -0.1370661 -0.7688171
-0.625623 -0.1443284 -0.7666584
-0.6266858 -0.1515979 -0.7643841
-0.6277939 -0.1588747 -0.7619932
-0.6289463 -0.1661591 -0.7594851
-0.630142 -0.1734514 -0.756859
-0.6313801 -0.1807518 -0.754114
-0.6326593 -0.1880604 -0.7512493
-0.6339787 -0.1953775 -0.7482638
-0.6353369 -0.2027033 -0.7451566
-0.6367328 -0.2100378 -0.7419269
-0.6381651 -0.2173812 -0.7385734
-0.6396325 -0.2247336 -0.7350953
-0.6411336 -0.2320951 -0.7314913
-0.642667 -0.2394657 -0.7277604
-0.6442313 -0.2468456 -0.7239015
-0.6458248 -0.2542345 -0.7199132
-0.6474461 -0.2616327 -0.7157946
-0.6490936 -0.2690399 -0.7115441
-0.6507655 -0.2764561 -0.7071608
-0.6524601 -0.2838812 -0.7026431
-0.6541757 -0.2913151 -0.6979898
-0.6559104 -0.2987574 -0.6931995
-0.6576624 -0.3062081 -0.6882708
-0.6594298 -0.3136667 -0.6832024
-0.6612105 -0.3211331 -0.6779928
-0.6630024 -0.3286069 -0.6726405
-0.6648036 -0.3360876 -0.6671441
-0.6666119 -0.3435748 -0.6615021
-0.668425 -0.351068 -0.6557128
-0.6702407 -0.3585666 -0.6497749
-0.6720566 -0.3660701 -0.6436868
-0.6738704 -0.3735778 -0.6374468
-0.6756796 -0.3810889 -0.6310534
-0.6774817 -0.3886028 -0.6245049