# vtk DataFile Version 2.0
Written badly by Kevin Korner
ASCII
DATASET POLYDATA
POINTS 350 FLOAT
0 0 0
0.00286533 0 0
0.005730528 7.437752e-06 2.639036e-05
0.008595312 2.309999e-05 8.006755e-05
0.01145937 4.779002e-05 0.0001618523
0.01432235 8.232482e-05 0.0002724914
0.01718389 0.0001275322 0.0004126593
0.0200436 0.0001842479 0.0005829599
0.02290103 0.0002533133 0.000783928
0.02575576 0.0003355725 0.001016031
0.02860731 0.00043187 0.00127967
0.03145519 0.0005430485 0.001575183
0.0342989 0.0006699464 0.001902843
0.0371379 0.0008133956 0.002262863
0.03997165 0.0009742197 0.002655397
0.0427996 0.001153231 0.003080539
0.04562119 0.001351232 0.003538326
0.04843583 0.001569006 0.004028744
0.05124293 0.001807326 0.004551719
0.0540419 0.002066944 0.005107132
0.05683213 0.002348594 0.00569481
0.05961303 0.002652989 0.006314533
0.06238399 0.00298082 0.006966034
0.06514439 0.003332756 0.007649001
0.06789362 0.003709442 0.008363081
0.07063109 0.004111496 0.009107879
0.07335619 0.004539512 0.00988296
0.07606832 0.004994057 0.01068785
0.07876689 0.005475668 0.01152205
0.08145132 0.005984857 0.01238502
0.08412102 0.006522106 0.01327618
0.08677543 0.007087867 0.01419493
0.089414 0.007682565 0.01514066
0.09203619 0.008306592 0.01611269
0.09464145 0.008960314 0.01711036
0.09722928 0.009644064 0.01813298
0.09979918 0.01035815 0.01917981
0.1023506 0.01110284 0.02025012
0.1048832 0.01187839 0.02134317
0.1073964 0.012685 0.02245818
0.1098898 0.01352287 0.02359438
0.112363 0.01439216 0.02475097
0.1148156 0.015293 0.02592717
0.1172472 0.01622549 0.02712215
0.1196574 0.0171897 0.02833512
0.1220459 0.01818569 0.02956525
0.1244124 0.01921348 0.03081173
0.1267564 0.02027307 0.03207373
0.1290779 0.02136443 0.03335044
0.1313764 0.02248752 0.03464103
0.1336517 0.02364226 0.0359447
0.1359036 0.02482857 0.03726062
0.1381319 0.02604632 0.03858799
0.1403364 0.02729538 0.03992601
0.1425169 0.02857559 0.04127389
0.1446731 0.02988679 0.04263083
0.1468051 0.03122878 0.04399606
0.1489127 0.03260135 0.04536881
0.1509956 0.03400429 0.04674832
0.153054 0.03543734 0.04813385
0.1550876 0.03690026 0.04952465
0.1570965 0.03839278 0.05092002
0.1590805 0.03991462 0.05231923
0.1610396 0.04146549 0.05372159
0.1629739 0.04304509 0.05512642
0.1648833 0.0446531 0.05653304
0.1667679 0.0462892 0.0579408
0.1686276 0.04795306 0.05934907
0.1704624 0.04964435 0.06075721
0.1722726 0.05136271 0.06216462
0.174058 0.0531078 0.0635707
0.1758188 0.05487925 0.06497487
0.177555 0.05667671 0.06637657
0.1792668 0.0584998 0.06777524
0.1809542 0.06034816 0.06917035
0.1826173 0.06222141 0.07056139
0.1842563 0.06411917 0.07194785
0.1858713 0.06604106 0.07332924
0.1874624 0.0679867 0.0747051
0.1890298 0.0699557 0.07607495
0.1905736 0.07194769 0.07743836
0.1920939 0.07396228 0.07879491
0.1935909 0.07599908 0.08014416
0.1950648 0.07805771 0.08148574
0.1965157 0.08013779 0.08281924
0.1979438 0.08223894 0.0841443
0.1993493 0.08436078 0.08546055
0.2007323 0.08650292 0.08676766
0.2020931 0.088665 0.08806529
0.2034318 0.09084664 0.08935311
0.2047486 0.09304746 0.09063082
0.2060437 0.0952671 0.09189813
0.2073172 0.0975052 0.09315474
0.2085694 0.09976139 0.0944004
0.2098005 0.1020353 0.09563482
0.2110107 0.1043266 0.09685777
0.2122001 0.106635 0.098069
0.2133689 0.10896 0.09926829
0.2145173 0.1113013 0.1004554
0.2156456 0.1136587 0.1016301
0.2167539 0.1160317 0.1027923
0.2178425 0.11842 0.1039417
0.2189114 0.1208233 0.1050781
0.2199609 0.1232414 0.1062014
0.2209912 0.1256737 0.1073114
0.2220025 0.1281202 0.1084079
0.222995 0.1305803 0.1094908
0.2239688 0.133054 0.11056
0.2249241 0.1355407 0.1116152
0.2258612 0.1380403 0.1126564
0.2267802 0.1405524 0.1136835
0.2276812 0.1430768 0.1146963
0.2285645 0.1456131 0.1156947
0.2294302 0.1481612 0.1166786
0.2302785 0.1507207 0.1176479
0.2311096 0.1532913 0.1186025
0.2319236 0.1558728 0.1195424
0.2327207 0.1584649 0.1204673
0.233501 0.1610675 0.1213773
0.2342648 0.1636801 0.1222723
0.2350122 0.1663026 0.1231522
0.2357433 0.1689347 0.1240168
0.2364582 0.1715761 0.1248663
0.2371572 0.1742268 0.1257004
0.2378404 0.1768863 0.1265191
0.2385079 0.1795545 0.1273225
0.2391598 0.1822311 0.1281103
0.2397963 0.184916 0.1288826
0.2404176 0.1876088 0.1296394
0.2410237 0.1903095 0.1303805
0.2416147 0.1930177 0.1311059
0.2421909 0.1957333 0.1318157
0.2427523 0.198456 0.1325097
0.2432991 0.2011857 0.1331879
0.2438313 0.2039221 0.1338503
0.2443491 0.2066651 0.1344969
0.2448526 0.2094145 0.1351276
0.2453418 0.21217 0.1357424
0.245817 0.2149314 0.1363412
0.2462781 0.2176987 0.1369241
0.2467254 0.2204715 0.1374911
0.2471588 0.2232498 0.138042
0.2475785 0.2260333 0.1385769
0.2479845 0.2288218 0.1390958
0.2483771 0.2316153 0.1395986
0.2487561 0.2344134 0.1400853
0.2491218 0.237216 0.140556
0.2494741 0.2400231 0.1410105
0.2498133 0.2428343 0.1414489
0.2501392 0.2456495 0.1418712
0.2504521 0.2484686 0.1422773
0.2507519 0.2512914 0.1426673
0.2510388 0.2541177 0.1430411
0.2513128 0.2569474 0.1433987
0.2515739 0.2597803 0.1437401
0.2518223 0.2626163 0.1440653
0.2520579 0.2654551 0.1443743
0.2522808 0.2682967 0.1446671
0.2524911 0.2711409 0.1449436
0.2526888 0.2739875 0.1452039
0.2528739 0.2768365 0.145448
0.2530465 0.2796875 0.1456758
0.2532066 0.2825405 0.1458874
0.2533543 0.2853954 0.1460827
0.2534896 0.2882519 0.1462618
0.2536125 0.2911099 0.1464246
0.253723 0.2939694 0.1465711
0.2538212 0.2968301 0.1467014
0.253907 0.2996918 0.1468154
0.2539806 0.3025546 0.1469131
0.2540419 0.3054181 0.1469945
0.2540909 0.3082822 0.1470596
0.2541276 0.3111469 0.1471085
0.2541521 0.314012 0.147141
0.2541644 0.3168772 0.1471573
0.2541644 0.3197426 0.1471573
0.2541521 0.3226078 0.147141
0.2541276 0.3254728 0.1471085
0.2540909 0.3283375 0.1470596
0.2540419 0.3312017 0.1469945
0.2539806 0.3340652 0.1469131
0.253907 0.3369279 0.1468154
0.2538212 0.3397897 0.1467014
0.253723 0.3426504 0.1465711
0.2536125 0.3455098 0.1464246
0.2534896 0.3483679 0.1462618
0.2533543 0.3512244 0.1460827
0.2532066 0.3540793 0.1458874
0.2530465 0.3569323 0.1456758
0.2528739 0.3597833 0.145448
0.2526888 0.3626322 0.1452039
0.2524911 0.3654789 0.1449436
0.2522808 0.368323 0.1446671
0.2520579 0.3711646 0.1443743
0.2518223 0.3740035 0.1440653
0.2515739 0.3768395 0.1437401
0.2513128 0.3796724 0.1433987
0.2510388 0.3825021 0.1430411
0.2507519 0.3853284 0.1426673
0.2504521 0.3881512 0.1422773
0.2501392 0.3909703 0.1418712
0.2498133 0.3937855 0.1414489
0.2494741 0.3965967 0.1410105
0.2491218 0.3994037 0.140556
0.2487561 0.4022064 0.1400853
0.2483771 0.4050045 0.1395986
0.2479845 0.4077979 0.1390958
0.2475785 0.4105865 0.1385769
0.2471588 0.41337 0.138042
0.2467254 0.4161482 0.1374911
0.2462781 0.4189211 0.1369241
0.245817 0.4216883 0.1363412
0.2453418 0.4244498 0.1357424
0.2448526 0.4272053 0.1351276
0.2443491 0.4299547 0.1344969
0.2438313 0.4326976 0.1338503
0.2432991 0.4354341 0.1331879
0.2427523 0.4381638 0.1325097
0.2421909 0.4408865 0.1318157
0.2416147 0.4436021 0.1311059
0.2410237 0.4463103 0.1303805
0.2404176 0.4490109 0.1296394
0.2397963 0.4517038 0.1288826
0.2391598 0.4543887 0.1281103
0.2385079 0.4570653 0.1273225
0.2378404 0.4597335 0.1265191
0.2371572 0.462393 0.1257004
0.2364582 0.4650436 0.1248663
0.2357433 0.4676851 0.1240168
0.2350122 0.4703172 0.1231522
0.2342648 0.4729397 0.1222723
0.233501 0.4755523 0.1213773
0.2327207 0.4781548 0.1204673
0.2319236 0.480747 0.1195424
0.2311096 0.4833285 0.1186025
0.2302785 0.4858991 0.1176479
0.2294302 0.4884586 0.1166786
0.2285645 0.4910066 0.1156947
0.2276812 0.493543 0.1146963
0.2267802 0.4960674 0.1136835
0.2258612 0.4985795 0.1126564
0.2249241 0.5010791 0.1116152
0.2239688 0.5035658 0.11056
0.222995 0.5060394 0.1094908
0.2220025 0.5084996 0.1084079
0.2209912 0.510946 0.1073114
0.2199609 0.5133784 0.1062014
0.2189114 0.5157964 0.1050781
0.2178425 0.5181998 0.1039417
0.2167539 0.5205881 0.1027923
0.2156456 0.5229611 0.1016301
0.2145173 0.5253185 0.1004554
0.2133689 0.5276598 0.09926829
0.2122001 0.5299848 0.098069
0.2110107 0.5322932 0.09685777
0.2098005 0.5345845 0.09563482
0.2085694 0.5368584 0.0944004
0.2073172 0.5391146 0.09315474
0.2060437 0.5413527 0.09189813
0.2047486 0.5435723 0.09063082
0.2034318 0.5457731 0.08935311
0.2020931 0.5479548 0.08806529
0.2007323 0.5501168 0.08676766
0.1993493 0.552259 0.08546055
0.1979438 0.5543808 0.0841443
0.1965157 0.556482 0.08281924
0.1950648 0.5585621 0.08148574
0.1935909 0.5606207 0.08014416
0.1920939 0.5626575 0.07879491
0.1905736 0.5646721 0.07743836
0.1890298 0.5666641 0.07607495
0.1874624 0.5686331 0.0747051
0.1858713 0.5705787 0.07332924
0.1842563 0.5725006 0.07194785
0.1826173 0.5743984 0.07056139
0.1809542 0.5762716 0.06917035
0.1792668 0.57812 0.06777524
0.177555 0.5799431 0.06637657
0.1758188 0.5817405 0.06497487
0.174058 0.583512 0.0635707
0.1722726 0.5852571 0.06216462
0.1704624 0.5869754 0.06075721
0.1686276 0.5886667 0.05934907
0.1667679 0.5903306 0.0579408
0.1648833 0.5919667 0.05653304
0.1629739 0.5935747 0.05512642
0.1610396 0.5951543 0.05372159
0.1590805 0.5967052 0.05231923
0.1570965 0.598227 0.05092002
0.1550876 0.5997195 0.04952465
0.153054 0.6011824 0.04813385
0.1509956 0.6026155 0.04674832
0.1489127 0.6040184 0.04536881
0.1468051 0.605391 0.04399606
0.1446731 0.606733 0.04263083
0.1425169 0.6080442 0.04127389
0.1403364 0.6093244 0.03992601
0.1381319 0.6105735 0.03858799
0.1359036 0.6117912 0.03726062
0.1336517 0.6129775 0.0359447
0.1313764 0.6141323 0.03464103
0.1290779 0.6152553 0.03335044
0.1267564 0.6163467 0.03207373
0.1244124 0.6174063 0.03081173
0.1220459 0.6184341 0.02956525
0.1196574 0.6194301 0.02833512
0.1172472 0.6203943 0.02712215
0.1148156 0.6213268 0.02592717
0.112363 0.6222276 0.02475097
0.1098898 0.6230969 0.02359438
0.1073964 0.6239348 0.02245818
0.1048832 0.6247414 0.02134317
0.1023506 0.6255169 0.02025012
0.09979918 0.6262616 0.01917981
0.09722928 0.6269757 0.01813298
0.09464145 0.6276595 0.01711036
0.09203619 0.6283132 0.01611269
0.089414 0.6289372 0.01514066
0.08677543 0.6295319 0.01419493
0.08412102 0.6300977 0.01327618
0.08145132 0.6306349 0.01238502
0.07876689 0.6311441 0.01152205
0.07606832 0.6316257 0.01068785
0.07335619 0.6320803 0.00988296
0.07063109 0.6325083 0.009107879
0.06789362 0.6329103 0.008363081
0.06514439 0.633287 0.007649001
0.06238399 0.633639 0.006966034
0.05961303 0.6339668 0.006314533
0.05683213 0.6342712 0.00569481
0.0540419 0.6345528 0.005107132
0.05124293 0.6348124 0.004551719
0.04843583 0.6350508 0.004028744
0.04562119 0.6352685 0.003538326
0.0427996 0.6354665 0.003080539
0.03997165 0.6356456 0.002655397
0.0371379 0.6358064 0.002262863
0.0342989 0.6359498 0.001902843
0.03145519 0.6360767 0.001575183
0.02860731 0.6361879 0.00127967
0.02575576 0.6362842 0.001016031
0.02290103 0.6363665 0.000783928
0.0200436 0.6364355 0.0005829599
0.01718389 0.6364922 0.0004126593
0.01432235 0.6365374 0.0002724914
0.01145937 0.636572 0.0001618523
0.008595312 0.6365967 8.006755e-05
0.005730528 0.6366123 2.639036e-05
0.00286533 0.6366198 0
0 0.6366198 0

LINES 349 1047
2 0 1
2 1 2
2 2 3
2 3 4
2 4 5
2 5 6
2 6 7
2 7 8
2 8 9
2 9 10
2 10 11
2 11 12
2 12 13
2 13 14
2 14 15
2 15 16
2 16 17
2 17 18
2 18 19
2 19 20
2 20 21
2 21 22
2 22 23
2 23 24
2 24 25
2 25 26
2 26 27
2 27 28
2 28 29
2 29 30
2 30 31
2 31 32
2 32 33
2 33 34
2 34 35
2 35 36
2 36 37
2 37 38
2 38 39
2 39 40
2 40 41
2 41 42
2 42 43
2 43 44
2 44 45
2 45 46
2 46 47
2 47 48
2 48 49
2 49 50
2 50 51
2 51 52
2 52 53
2 53 54
2 54 55
2 55 56
2 56 57
2 57 58
2 58 59
2 59 60
2 60 61
2 61 62
2 62 63
2 63 64
2 64 65
2 65 66
2 66 67
2 67 68
2 68 69
2 69 70
2 70 71
2 71 72
2 72 73
2 73 74
2 74 75
2 75 76
2 76 77
2 77 78
2 78 79
2 79 80
2 80 81
2 81 82
2 82 83
2 83 84
2 84 85
2 85 86
2 86 87
2 87 88
2 88 89
2 89 90
2 90 91
2 91 92
2 92 93
2 93 94
2 94 95
2 95 96
2 96 97
2 97 98
2 98 99
2 99 100
2 100 101
2 101 102
2 102 103
2 103 104
2 104 105
2 105 106
2 106 107
2 107 108
2 108 109
2 109 110
2 110 111
2 111 112
2 112 113
2 113 114
2 114 115
2 115 116
2 116 117
2 117 118
2 118 119
2 119 120
2 120 121
2 121 122
2 122 123
2 123 124
2 124 125
2 125 126
2 126 127
2 127 128
2 128 129
2 129 130
2 130 131
2 131 132
2 132 133
2 133 134
2 134 135
2 135 136
2 136 137
2 137 138
2 138 139
2 139 140
2 140 141
2 141 142
2 142 143
2 143 144
2 144 145
2 145 146
2 146 147
2 147 148
2 148 149
2 149 150
2 150 151
2 151 152
2 152 153
2 153 154
2 154 155
2 155 156
2 156 157
2 157 158
2 158 159
2 159 160
2 160 161
2 161 162
2 162 163
2 163 164
2 164 165
2 165 166
2 166 167
2 167 168
2 168 169
2 169 170
2 170 171
2 171 172
2 172 173
2 173 174
2 174 175
2 175 176
2 176 177
2 177 178
2 178 179
2 179 180
2 180 181
2 181 182
2 182 183
2 183 184
2 184 185
2 185 186
2 186 187
2 187 188
2 188 189
2 189 190
2 190 191
2 191 192
2 192 193
2 193 194
2 194 195
2 195 196
2 196 197
2 197 198
2 198 199
2 199 200
2 200 201
2 201 202
2 202 203
2 203 204
2 204 205
2 205 206
2 206 207
2 207 208
2 208 209
2 209 210
2 210 211
2 211 212
2 212 213
2 213 214
2 214 215
2 215 216
2 216 217
2 217 218
2 218 219
2 219 220
2 220 221
2 221 222
2 222 223
2 223 224
2 224 225
2 225 226
2 226 227
2 227 228
2 228 229
2 229 230
2 230 231
2 231 232
2 232 233
2 233 234
2 234 235
2 235 236
2 236 237
2 237 238
2 238 239
2 239 240
2 240 241
2 241 242
2 242 243
2 243 244
2 244 245
2 245 246
2 246 247
2 247 248
2 248 249
2 249 250
2 250 251
2 251 252
2 252 253
2 253 254
2 254 255
2 255 256
2 256 257
2 257 258
2 258 259
2 259 260
2 260 261
2 261 262
2 262 263
2 263 264
2 264 265
2 265 266
2 266 267
2 267 268
2 268 269
2 269 270
2 270 271
2 271 272
2 272 273
2 273 274
2 274 275
2 275 276
2 276 277
2 277 278
2 278 279
2 279 280
2 280 281
2 281 282
2 282 283
2 283 284
2 284 285
2 285 286
2 286 287
2 287 288
2 288 289
2 289 290
2 290 291
2 291 292
2 292 293
2 293 294
2 294 295
2 295 296
2 296 297
2 297 298
2 298 299
2 299 300
2 300 301
2 301 302
2 302 303
2 303 304
2 304 305
2 305 306
2 306 307
2 307 308
2 308 309
2 309 310
2 310 311
2 311 312
2 312 313
2 313 314
2 314 315
2 315 316
2 316 317
2 317 318
2 318 319
2 319 320
2 320 321
2 321 322
2 322 323
2 323 324
2 324 325
2 325 326
2 326 327
2 327 328
2 328 329
2 329 330
2 330 331
2 331 332
2 332 333
2 333 334
2 334 335
2 335 336
2 336 337
2 337 338
2 338 339
2 339 340
2 340 341
2 341 342
2 342 343
2 343 344
2 344 345
2 345 346
2 346 347
2 347 348
2 348 349


POINT_DATA 350
SCALARS a FLOAT 1
LOOKUP_TABLE default
0.0005894628
0.0005894628
0.0005894628
0.0005894628
0.0005894628
0.0005894628
0.0005894628
0.0005894628
0.0005894628
0.0005894628
0.0005894628
0.0005894628
0.0005894628
0.0005894628
0.0005894628
0.0005894628
0.0005894628
0.0005894628
0.0005894628
0.0005894628
0.0005894628
0.0005894628
0.0005894628
0.0005894628
0.0005894628
0.0005894628
0.0005894628
0.0005894628
0.0005894628
0.0005894628
0.0005894628
0.0005894628
0.0005894628
0.0005894628
0.0005894628
0.0005894628
0.0005894628
0.0005894628
0.0005894628
0.0005894628
0.0005894628
0.0005894628
0.0005894628
0.0005894628
0.0005894628
0.0005894628
0.0005894628
0.0005894628
0.0005894628
0.0005894628
0.0005894628
0.0005894628
0.0005894628
0.0005894628
0.0005894628
0.0005894628
0.0005894628
0.0005894628
0.0005894628
0.0005894628
0.0005894628
0.0005894628
0.0005894628
0.0005894628
0.0005894628
0.0005894628
0.0005894628
0.0005894628
0.0005894628
0.0005894628
0.0005894628
0.0005894628
0.0005894628
0.0005894628
0.0005894628
0.0005894628
0.0005894628
0.0005894628
0.0005894628
0.0005894628
0.0005894628
0.0005894628
0.0005894628
0.0005894628
0.0005894628
0.0005894628
0.0005894628
0.0005894628
0.0005894628
0.0005894628
0.0005894628
0.0005894628
0.0005894628
0.0005894628
0.0005894628
0.0005894628
0.0005894628
0.0005894628
0.0005894628
0.0005894628
0.0005894628
0.0005894628
0.0005894628
0.0005894628
0.0005894628
0.0005894628
0.0005894628
0.0005894628
0.0005894628
0.0005894628
0.0005894628
0.0005894628
0.0005894628
0.0005894628
0.0005894628
0.0005894628
0.0005894628
0.0005894628
0.0005894628
0.0005894628
0.0005894628
0.0005894628
0.0005894628
0.0005894628
0.0005894628
0.0005894628
0.0005894628
0.0005894628
0.0005894628
0.0005894628
0.0005894628
0.0005894628
0.0005894628
0.0005894628
0.0005894628
0.0005894628
0.0005894628
0.0005894628
0.0005894628
0.0005894628
0.0005894628
0.0005894628
0.0005894628
0.0005894628
0.0005894628
0.0005894628
0.0005894628
0.0005894628
0.0005894628
0.0005894628
0.0005894628
0.0005894628
0.0005894628
0.0005894628
0.0005894628
0.0005894628
0.0005894628
0.0005894628
0.0005894628
0.0005894628
0.0005894628
0.0005894628
0.0005894628
0.0005894628
0.0005894628
0.0005894628
0.0005894628
0.0005894628
0.0005894628
0.0005894628
0.0005894628
0.0005894628
0.0005894628
0.0005894628
0.0005894628
0.0005894628
0.0005894628
0.0005894628
0.0005894628
0.0005894628
0.0005894628
0.0005894628
0.0005894628
0.0005894628
0.0005894628
0.0005894628
0.0005894628
0.0005894628
0.0005894628
0.0005894628
0.0005894628
0.0005894628
0.0005894628
0.0005894628
0.0005894628
0.0005894628
0.0005894628
0.0005894628
0.0005894628
0.0005894628
0.0005894628
0.0005894628
0.0005894628
0.0005894628
0.0005894628
0.0005894628
0.0005894628
0.0005894628
0.0005894628
0.0005894628
0.0005894628
0.0005894628
0.0005894628
0.0005894628
0.0005894628
0.0005894628
0.0005894628
0.0005894628
0.0005894628
0.0005894628
0.0005894628
0.0005894628
0.0005894628
0.0005894628
0.0005894628
0.0005894628
0.0005894628
0.0005894628
0.0005894628
0.0005894628
0.0005894628
0.0005894628
0.0005894628
0.0005894628
0.0005894628
0.0005894628
0.0005894628
0.0005894628
0.0005894628
0.0005894628
0.0005894628
0.0005894628
0.0005894628
0.0005894628
0.0005894628
0.0005894628
0.0005894628
0.0005894628
0.0005894628
0.0005894628
0.0005894628
0.0005894628
0.0005894628
0.0005894628
0.0005894628
0.0005894628
0.0005894628
0.0005894628
0.0005894628
0.0005894628
0.0005894628
0.0005894628
0.0005894628
0.0005894628
0.0005894628
0.0005894628
0.0005894628
0.0005894628
0.0005894628
0.0005894628
0.0005894628
0.0005894628
0.0005894628
0.0005894628
0.0005894628
0.0005894628
0.0005894628
0.0005894628
0.0005894628
0.0005894628
0.0005894628
0.0005894628
0.0005894628
0.0005894628
0.0005894628
0.0005894628
0.0005894628
0.0005894628
0.0005894628
0.0005894628
0.0005894628
0.0005894628
0.0005894628
0.0005894628
0.0005894628
0.0005894628
0.0005894628
0.0005894628
0.0005894628
0.0005894628
0.0005894628
0.0005894628
0.0005894628
0.0005894628
0.0005894628
0.0005894628
0.0005894628
0.0005894628
0.0005894628
0.0005894628
0.0005894628
0.0005894628
0.0005894628
0.0005894628
0.0005894628
0.0005894628
0.0005894628
0.0005894628
0.0005894628
0.0005894628
0.0005894628
0.0005894628
0.0005894628
0.0005894628
0.0005894628
0.0005894628
0.0005894628
0.0005894628
0.0005894628
0.0005894628
0.0005894628
0.0005894628
0.0005894628
0.0005894628
0.0005894628
0.0005894628
0.0005894628
0.0005894628
0.0005894628
0.0005894628
0.0005894628
0.0005894628
0.0005894628
0.0005894628
0.0005894628
0.0005894628
0.0005894628
0.0005894628
0.0005894628
0.0005894628


SCALARS b FLOAT 1
LOOKUP_TABLE default
0.02357851
0.02357851
0.02357851
0.02357851
0.02357851
0.02357851
0.02357851
0.02357851
0.02357851
0.02357851
0.02357851
0.02357851
0.02357851
0.02357851
0.02357851
0.02357851
0.02357851
0.02357851
0.02357851
0.02357851
0.02357851
0.02357851
0.02357851
0.02357851
0.02357851
0.02357851
0.02357851
0.02357851
0.02357851
0.02357851
0.02357851
0.02357851
0.02357851
0.02357851
0.02357851
0.02357851
0.02357851
0.02357851
0.02357851
0.02357851
0.02357851
0.02357851
0.02357851
0.02357851
0.02357851
0.02357851
0.02357851
0.02357851
0.02357851
0.02357851
0.02357851
0.02357851
0.02357851
0.02357851
0.02357851
0.02357851
0.02357851
0.02357851
0.02357851
0.02357851
0.02357851
0.02357851
0.02357851
0.02357851
0.02357851
0.02357851
0.02357851
0.02357851
0.02357851
0.02357851
0.02357851
0.02357851
0.02357851
0.02357851
0.02357851
0.02357851
0.02357851
0.02357851
0.02357851
0.02357851
0.02357851
0.02357851
0.02357851
0.02357851
0.02357851
0.02357851
0.02357851
0.02357851
0.02357851
0.02357851
0.02357851
0.02357851
0.02357851
0.02357851
0.02357851
0.02357851
0.02357851
0.02357851
0.02357851
0.02357851
0.02357851
0.02357851
0.02357851
0.02357851
0.02357851
0.02357851
0.02357851
0.02357851
0.02357851
0.02357851
0.02357851
0.02357851
0.02357851
0.02357851
0.02357851
0.02357851
0.02357851
0.02357851
0.02357851
0.02357851
0.02357851
0.02357851
0.02357851
0.02357851
0.02357851
0.02357851
0.02357851
0.02357851
0.02357851
0.02357851
0.02357851
0.02357851
0.02357851
0.02357851
0.02357851
0.02357851
0.02357851
0.02357851
0.02357851
0.02357851
0.02357851
0.02357851
0.02357851
0.02357851
0.02357851
0.02357851
0.02357851
0.02357851
0.02357851
0.02357851
0.02357851
0.02357851
0.02357851
0.02357851
0.02357851
0.02357851
0.02357851
0.02357851
0.02357851
0.02357851
0.02357851
0.02357851
0.02357851
0.02357851
0.02357851
0.02357851
0.02357851
0.02357851
0.02357851
0.02357851
0.02357851
0.02357851
0.02357851
0.02357851
0.02357851
0.02357851
0.02357851
0.02357851
0.02357851
0.02357851
0.02357851
0.02357851
0.02357851
0.02357851
0.02357851
0.02357851
0.02357851
0.02357851
0.02357851
0.02357851
0.02357851
0.02357851
0.02357851
0.02357851
0.02357851
0.02357851
0.02357851
0.02357851
0.02357851
0.02357851
0.02357851
0.02357851
0.02357851
0.02357851
0.02357851
0.02357851
0.02357851
0.02357851
0.02357851
0.02357851
0.02357851
0.02357851
0.02357851
0.02357851
0.02357851
0.02357851
0.02357851
0.02357851
0.02357851
0.02357851
0.02357851
0.02357851
0.02357851
0.02357851
0.02357851
0.02357851
0.02357851
0.02357851
0.02357851
0.02357851
0.02357851
0.02357851
0.02357851
0.02357851
0.02357851
0.02357851
0.02357851
0.02357851
0.02357851
0.02357851
0.02357851
0.02357851
0.02357851
0.02357851
0.02357851
0.02357851
0.02357851
0.02357851
0.02357851
0.02357851
0.02357851
0.02357851
0.02357851
0.02357851
0.02357851
0.02357851
0.02357851
0.02357851
0.02357851
0.02357851
0.02357851
0.02357851
0.02357851
0.02357851
0.02357851
0.02357851
0.02357851
0.02357851
0.02357851
0.02357851
0.02357851
0.02357851
0.02357851
0.02357851
0.02357851
0.02357851
0.02357851
0.02357851
0.02357851
0.02357851
0.02357851
0.02357851
0.02357851
0.02357851
0.02357851
0.02357851
0.02357851
0.02357851
0.02357851
0.02357851
0.02357851
0.02357851
0.02357851
0.02357851
0.02357851
0.02357851
0.02357851
0.02357851
0.02357851
0.02357851
0.02357851
0.02357851
0.02357851
0.02357851
0.02357851
0.02357851
0.02357851
0.02357851
0.02357851
0.02357851
0.02357851
0.02357851
0.02357851
0.02357851
0.02357851
0.02357851
0.02357851
0.02357851
0.02357851
0.02357851
0.02357851
0.02357851
0.02357851
0.02357851
0.02357851
0.02357851
0.02357851
0.02357851
0.02357851
0.02357851
0.02357851
0.02357851
0.02357851
0.02357851
0.02357851
0.02357851
0.02357851
0.02357851
0.02357851
0.02357851
0.02357851
0.02357851
0.02357851
0.02357851
0.02357851
0.02357851
0.02357851
0.02357851
0.02357851
0.02357851


VECTORS d1 FLOAT
0 0.2608415 0.9653816
-0.009568782 0.2782812 0.960452
-0.01951195 0.2955833 0.9551177
-0.02980586 0.3127341 0.9493729
-0.0404274 0.32972 0.9432128
-0.05135395 0.3465273 0.9366331
-0.06256336 0.3631424 0.9296308
-0.07403393 0.3795518 0.9222036
-0.08574434 0.3957422 0.9143501
-0.09767369 0.4117005 0.9060698
-0.1098015 0.4274138 0.8973634
-0.1221075 0.4428696 0.8882321
-0.134572 0.4580558 0.8786782
-0.1471755 0.4729604 0.8687047
-0.159899 0.487572 0.8583157
-0.1727238 0.5018797 0.847516
-0.1856315 0.5158728 0.836311
-0.1986044 0.5295415 0.8247073
-0.2116247 0.5428762 0.8127118
-0.2246754 0.5558678 0.8003324
-0.2377398 0.568508 0.7875776
-0.2508016 0.5807889 0.7744565
-0.2638449 0.5927032 0.7609788
-0.2768544 0.6042443 0.7471549
-0.2898151 0.6154061 0.7329956
-0.3027126 0.6261832 0.7185121
-0.3155329 0.6365707 0.7037163
-0.3282626 0.6465645 0.6886204
-0.3408888 0.6561608 0.6732368
-0.353399 0.6653568 0.6575785
-0.3657813 0.6741501 0.6416585
-0.3780244 0.6825389 0.6254904
-0.3901175 0.690522 0.6090876
-0.4020502 0.6980989 0.592464
-0.4138128 0.7052695 0.5756335
-0.4253963 0.7120343 0.55861
-0.4367919 0.7183946 0.5414075
-0.4479915 0.7243517 0.5240402
-0.4589877 0.729908 0.5065221
-0.4697735 0.7350659 0.488867
-0.4803423 0.7398286 0.471089
-0.4906883 0.7441996 0.4532018
-0.5008061 0.7481828 0.4352191
-0.5106908 0.7517826 0.4171543
-0.5203381 0.7550037 0.3990208
-0.5297441 0.7578513 0.3808316
-0.5389053 0.7603306 0.3625995
-0.547819 0.7624475 0.3443372
-0.5564826 0.7642081 0.3260569
-0.5648942 0.7656185 0.3077706
-0.5730523 0.7666854 0.2894901
-0.5809556 0.7674155 0.2712268
-0.5886036 0.7678158 0.2529916
-0.5959957 0.7678933 0.2347954
-0.6031322 0.7676555 0.2166485
-0.6100134 0.7671097 0.1985608
-0.61664 0.7662634 0.1805421
-0.6230132 0.7651244 0.1626016
-0.6291343 0.7637002 0.1447482
-0.6350051 0.7619987 0.1269904
-0.6406275 0.7600276 0.1093365
-0.6460037 0.7577948 0.09179424
-0.6511363 0.7553082 0.07437098
-0.656028 0.7525754 0.05707381
-0.6606818 0.7496045 0.03990943
-0.6651007 0.746403 0.02288414
-0.6692881 0.7429787 0.006003941
-0.6732477 0.7393393 -0.01072556
-0.6769829 0.7354923 -0.02729908
-0.6804977 0.7314452 -0.04371168
-0.6837961 0.7272055 -0.05995875
-0.6868821 0.7227804 -0.076036
-0.68976 0.7181771 -0.09193945
-0.6924339 0.7134027 -0.1076654
-0.6949084 0.7084641 -0.1232106
-0.6971879 0.7033682 -0.1385718
-0.6992769 0.6981217 -0.1537463
-0.70118 0.692731 -0.1687315
-0.7029019 0.6872026 -0.1835252
-0.7044472 0.6815427 -0.1981253
-0.7058206 0.6757575 -0.21253
-0.7070269 0.6698529 -0.2267378
-0.7080708 0.6638347 -0.2407474
-0.708957 0.6577084 -0.2545577
-0.7096903 0.6514797 -0.2681676
-0.7102754 0.6451538 -0.2815765
-0.7107171 0.6387359 -0.294784
-0.7110201 0.632231 -0.3077895
-0.711189 0.625644 -0.3205929
-0.7112286 0.6189795 -0.3331941
-0.7111434 0.612242 -0.3455934
-0.710938 0.605436 -0.3577909
-0.710617 0.5985658 -0.3697871
-0.710185 0.5916352 -0.3815823
-0.7096462 0.5846484 -0.3931774
-0.7090053 0.577609 -0.404573
-0.7082665 0.5705208 -0.41577
-0.7074341 0.5633871 -0.4267693
-0.7065124 0.5562114 -0.4375719
-0.7055055 0.5489968 -0.448179
-0.7044177 0.5417465 -0.4585918
-0.7032529 0.5344634 -0.4688116
-0.7020151 0.5271503 -0.4788396
-0.7007083 0.5198099 -0.4886773
-0.6993364 0.5124448 -0.4983261
-0.6979032 0.5050574 -0.5077875
-0.6964124 0.4976501 -0.517063
-0.6948676 0.4902251 -0.5261543
-0.6932725 0.4827844 -0.535063
-0.6916306 0.4753302 -0.5437906
-0.6899454 0.4678643 -0.552339
-0.6882203 0.4603884 -0.5607097
-0.6864586 0.4529044 -0.5689045
-0.6846635 0.4454137 -0.5769251
-0.6828383 0.437918 -0.5847733
-0.680986 0.4304185 -0.5924508
-0.6791098 0.4229168 -0.5999594
-0.6772126 0.415414 -0.6073008
-0.6752974 0.4079112 -0.6144769
-0.673367 0.4004097 -0.6214894
-0.6714242 0.3929103 -0.6283399
-0.6694717 0.3854142 -0.6350304
-0.6675122 0.377922 -0.6415625
-0.6655483 0.3704347 -0.6479379
-0.6635826 0.3629531 -0.6541584
-0.6616175 0.3554776 -0.6602257
-0.6596554 0.3480092 -0.6661414
-0.6576987 0.3405481 -0.6719073
-0.6557497 0.3330951 -0.6775249
-0.6538106 0.3256505 -0.6829959
-0.6518836 0.3182148 -0.688322
-0.6499708 0.3107883 -0.6935046
-0.6480742 0.3033714 -0.6985453
-0.646196 0.2959643 -0.7034458
-0.6443379 0.2885672 -0.7082073
-0.642502 0.2811804 -0.7128315
-0.64069 0.273804 -0.7173198
-0.6389038 0.266438 -0.7216736
-0.637145 0.2590826 -0.7258943
-0.6354153 0.2517379 -0.7299831
-0.6337165 0.2444038 -0.7339416
-0.63205 0.2370803 -0.7377708
-0.6304173 0.2297674 -0.7414722
-0.62882 0.222465 -0.7450468
-0.6272594 0.215173 -0.748496
-0.625737 0.2078913 -0.7518207
-0.624254 0.2006197 -0.7550223
-0.6228118 0.1933581 -0.7581016
-0.6214115 0.1861062 -0.7610599
-0.6200544 0.1788639 -0.7638981
-0.6187415 0.1716309 -0.7666171
-0.617474 0.164407 -0.7692179
-0.6162529 0.1571919 -0.7717014
-0.6150792 0.1499853 -0.7740684
-0.6139538 0.142787 -0.7763199
-0.6128777 0.1355966 -0.7784565
-0.6118516 0.1284138 -0.780479
-0.6108764 0.1212383 -0.7823882
-0.6099529 0.1140697 -0.7841846
-0.6090818 0.1069077 -0.785869
-0.6082637 0.09975191 -0.7874419
-0.6074994 0.09260193 -0.7889039
-0.6067893 0.0854574 -0.7902556
-0.606134 0.07831793 -0.7914973
-0.605534 0.07118311 -0.7926295
-0.6049898 0.06405255 -0.7936527
-0.6045018 0.05692584 -0.7945672
-0.6040703 0.04980256 -0.7953734
-0.6036957 0.04268228 -0.7960714
-0.6033783 0.0355646 -0.7966617
-0.6031182 0.02844908 -0.7971443
-0.6029158 0.02133529 -0.7975195
-0.602771 0.0142228 -0.7977874
-0.6026842 0.007111184 -0.7979481
-0.6026552 7.192025e-13 -0.7980017
-0.6026842 -0.007111184 -0.7979481
-0.602771 -0.0142228 -0.7977874
-0.6029158 -0.02133529 -0.7975195
-0.6031182 -0.02844908 -0.7971443
-0.6033783 -0.0355646 -0.7966617
-0.6036957 -0.04268228 -0.7960714
-0.6040703 -0.04980256 -0.7953734
-0.6045018 -0.05692584 -0.7945672
-0.6049898 -0.06405255 -0.7936527
-0.605534 -0.07118311 -0.7926295
-0.606134 -0.07831793 -0.7914973
-0.6067893 -0.0854574 -0.7902556
-0.6074994 -0.09260193 -0.7889039
-0.6082637 -0.09975191 -0.7874419
-0.6090818 -0.1069077 -0.785869
-0.6099529 -0.1140697 -0.7841846
-0.6108764 -0.1212383 -0.7823882
-0.6118516 -0.1284138 -0.780479
-0.6128777 -0.1355966 -0.7784565
-0.6139538 -0.142787 -0.7763199
-0.6150792 -0.1499853 -0.7740684
-0.6162529 -0.1571919 -0.7717014
-0.617474 -0.164407 -0.7692179
-0.6187415 -0.1716309 -0.7666171
-0.6200544 -0.1788639 -0.7638981
-0.6214115 -0.1861062 -0.7610599
-0.6228118 -0.1933581 -0.7581016
-0.624254 -0.2006197 -0.7550223
-0.625737 -0.2078913 -0.7518207
-0.6272594 -0.215173 -0.748496
-0.62882 -0.222465 -0.7450468
-0.6304173 -0.2297674 -0.7414722
-0.63205 -0.2370803 -0.7377708
-0.6337165 -0.2444038 -0.7339416
-0.6354153 -0.2517379 -0.7299831
-0.637145 -0.2590826 -0.7258943
-0.6389038 -0.266438 -0.7216736
-0.64069 -0.273804 -0.7173198
-0.642502 -0.2811804 -0.7128315
-0.6443379 -0.2885672 -0.7082073
-0.646196 -0.2959643 -0.7034458
-0.6480742 -0.3033714 -0.6985453
-0.6499708 -0.3107883 -0.6935046
-0.6518836 -0.3182148 -0.688322
-0.6538106 -0.3256505 -0.6829959
-0.6557497 -0.3330951 -0.6775249
-0.6576987 -0.3405481 -0.6719073
-0.6596554 -0.3480092 -0.6661414
-0.6616175 -0.3554776 -0.6602257
-0.6635826 -0.3629531 -0.6541584
-0.6655483 -0.3704347 -0.6479379
-0.6675122 -0.377922 -0.6415625
-0.6694717 -0.3854142 -0.6350304
-0.6714242 -0.3929103 -0.6283399
-0.673367 -0.4004097 -0.6214894