# vtk DataFile Version 2.0
Written badly by Kevin Korner
ASCII
DATASET POLYDATA
POINTS 350 FLOAT
0 0 0
0.00286533 0 0
0.005730535 2.601477e-05 5.771217e-06
0.008595369 7.804854e-05 1.723489e-05
0.01145958 0.000156103 3.43121e-05
0.01432293 0.0002601773 5.692379e-05
0.01718517 0.0003902681 8.499073e-05
0.02004605 0.0005463696 0.0001184336
0.02290532 0.0007284734 0.0001571729
0.02576275 0.0009365688 0.0002011292
0.02861808 0.001170642 0.0002502227
0.03147107 0.001430679 0.0003043738
0.03432148 0.001716659 0.0003635025
0.03716906 0.002028563 0.0004275291
0.04001358 0.002366368 0.0004963736
0.04285478 0.002730047 0.0005699559
0.04569243 0.003119574 0.0006481962
0.04852629 0.003534917 0.0007310142
0.05135611 0.003976044 0.0008183301
0.05418166 0.00444292 0.0009100637
0.0570027 0.004935508 0.001006135
0.05981898 0.005453767 0.001106464
0.06263027 0.005997655 0.00121097
0.06543634 0.006567128 0.001319575
0.06823695 0.007162138 0.001432196
0.07103186 0.007782637 0.001548756
0.07382083 0.008428574 0.001669174
0.07660364 0.009099893 0.00179337
0.07938005 0.009796539 0.001921264
0.08214982 0.01051845 0.002052778
0.08491273 0.01126558 0.002187831
0.08766855 0.01203785 0.002326344
0.09041704 0.01283519 0.002468239
0.09315798 0.01365756 0.002613435
0.09589114 0.01450486 0.002761854
0.09861629 0.01537704 0.002913417
0.1013332 0.01627401 0.003068045
0.1040417 0.0171957 0.00322566
0.1067414 0.01814204 0.003386184
0.1094323 0.01911294 0.003549538
0.1121141 0.02010832 0.003715645
0.1147865 0.0211281 0.003884426
0.1174493 0.02217218 0.004055805
0.1201023 0.02324049 0.004229703
0.1227453 0.02433292 0.004406043
0.1253781 0.02544939 0.00458475
0.1280005 0.0265898 0.004765746
0.1306122 0.02775406 0.004948954
0.1332131 0.02894206 0.0051343
0.1358029 0.0301537 0.005321706
0.1383813 0.03138888 0.005511097
0.1409483 0.0326475 0.005702398
0.1435036 0.03392945 0.005895534
0.1460469 0.03523462 0.00609043
0.1485782 0.03656289 0.006287011
0.1510971 0.03791416 0.006485205
0.1536035 0.03928832 0.006684936
0.1560971 0.04068523 0.006886131
0.1585778 0.0421048 0.007088718
0.1610454 0.04354689 0.007292623
0.1634996 0.04501138 0.007497775
0.1659403 0.04649815 0.0077041
0.1683673 0.04800707 0.007911528
0.1707804 0.04953802 0.008119986
0.1731793 0.05109087 0.008329405
0.175564 0.05266548 0.008539713
0.1779341 0.05426173 0.00875084
0.1802895 0.05587947 0.008962717
0.1826301 0.05751857 0.009175274
0.1849556 0.05917889 0.009388442
0.1872659 0.0608603 0.009602152
0.1895607 0.06256265 0.009816337
0.1918399 0.0642858 0.01003093
0.1941033 0.0660296 0.01024586
0.1963508 0.06779391 0.01046106
0.1985821 0.06957857 0.01067647
0.2007971 0.07138345 0.01089203
0.2029955 0.07320839 0.01110765
0.2051773 0.07505323 0.01132329
0.2073422 0.07691782 0.01153887
0.2094901 0.078802 0.01175433
0.2116209 0.08070562 0.01196961
0.2137342 0.08262852 0.01218465
0.2158301 0.08457054 0.01239938
0.2179082 0.08653152 0.01261374
0.2199686 0.08851129 0.01282767
0.2220108 0.09050968 0.0130411
0.224035 0.09252654 0.01325399
0.2260408 0.09456169 0.01346626
0.2280281 0.09661497 0.01367786
0.2299967 0.0986862 0.01388872
0.2319466 0.1007752 0.0140988
0.2338775 0.1028818 0.01430804
0.2357894 0.1050059 0.01451637
0.2376819 0.1071472 0.01472373
0.2395551 0.1093056 0.01493008
0.2414088 0.1114809 0.01513536
0.2432428 0.1136729 0.01533951
0.2450569 0.1158815 0.01554248
0.2468511 0.1181064 0.01574421
0.2486252 0.1203476 0.01594466
0.250379 0.1226047 0.01614376
0.2521125 0.1248776 0.01634147
0.2538254 0.1271661 0.01653773
0.2555178 0.1294701 0.0167325
0.2571893 0.1317893 0.01692572
0.2588399 0.1341235 0.01711735
0.2604696 0.1364726 0.01730733
0.262078 0.1388364 0.01749562
0.2636652 0.1412147 0.01768216
0.265231 0.1436072 0.01786692
0.2667753 0.1460139 0.01804985
0.2682979 0.1484344 0.01823089
0.2697988 0.1508686 0.01841001
0.2712778 0.1533163 0.01858715
0.2727349 0.1557773 0.01876229
0.2741698 0.1582514 0.01893536
0.2755826 0.1607383 0.01910633
0.276973 0.163238 0.01927517
0.2783411 0.1657501 0.01944181
0.2796866 0.1682745 0.01960624
0.2810095 0.170811 0.0197684
0.2823096 0.1733594 0.01992825
0.283587 0.1759194 0.02008577
0.2848414 0.1784909 0.0202409
0.2860728 0.1810736 0.02039361
0.2872811 0.1836673 0.02054387
0.2884662 0.1862719 0.02069165
0.289628 0.1888871 0.02083689
0.2907665 0.1915127 0.02097958
0.2918815 0.1941485 0.02111967
0.2929729 0.1967942 0.02125713
0.2940407 0.1994497 0.02139194
0.2950848 0.2021148 0.02152405
0.2961051 0.2047892 0.02165344
0.2971016 0.2074727 0.02178008
0.2980741 0.210165 0.02190394
0.2990226 0.2128661 0.02202499
0.299947 0.2155757 0.02214319
0.3008472 0.2182935 0.02225853
0.3017233 0.2210193 0.02237098
0.302575 0.2237529 0.02248051
0.3034024 0.2264941 0.02258709
0.3042053 0.2292427 0.0226907
0.3049838 0.2319984 0.02279132
0.3057378 0.234761 0.02288892
0.3064671 0.2375303 0.02298348
0.3071719 0.2403061 0.02307498
0.3078519 0.2430882 0.0231634
0.3085071 0.2458763 0.02324872
0.3091376 0.2486702 0.02333091
0.3097432 0.2514697 0.02340997
0.310324 0.2542745 0.02348587
0.3108798 0.2570845 0.02355859
0.3114106 0.2598994 0.02362812
0.3119164 0.2627189 0.02369444
0.3123971 0.2655429 0.02375754
0.3128528 0.2683711 0.0238174
0.3132833 0.2712034 0.02387401
0.3136886 0.2740394 0.02392736
0.3140688 0.2768789 0.02397743
0.3144238 0.2797218 0.02402422
0.3147535 0.2825678 0.0240677
0.315058 0.2854166 0.02410788
0.3153371 0.2882681 0.02414474
0.315591 0.2911219 0.02417828
0.3158195 0.293978 0.02420849
0.3160226 0.296836 0.02423536
0.3162005 0.2996957 0.02425888
0.3163529 0.3025569 0.02427905
0.3164799 0.3054193 0.02429587
0.3165816 0.3082828 0.02430932
0.3166578 0.3111471 0.02431942
0.3167086 0.314012 0.02432615
0.3167341 0.3168772 0.02432952
0.3167341 0.3197426 0.02432952
0.3167086 0.3226078 0.02432615
0.3166578 0.3254726 0.02431942
0.3165816 0.3283369 0.02430932
0.3164799 0.3312004 0.02429587
0.3163529 0.3340629 0.02427905
0.3162005 0.3369241 0.02425888
0.3160226 0.3397838 0.02423536
0.3158195 0.3426418 0.02420849
0.315591 0.3454978 0.02417828
0.3153371 0.3483517 0.02414474
0.315058 0.3512032 0.02410788
0.3147535 0.354052 0.0240677
0.3144238 0.356898 0.02402422
0.3140688 0.3597408 0.02397743
0.3136886 0.3625804 0.02392736
0.3132833 0.3654164 0.02387401
0.3128528 0.3682486 0.0238174
0.3123971 0.3710769 0.02375754
0.3119164 0.3739009 0.02369444
0.3114106 0.3767204 0.02362812
0.3108798 0.3795353 0.02355859
0.310324 0.3823453 0.02348587
0.3097432 0.3851501 0.02340997
0.3091376 0.3879496 0.02333091
0.3085071 0.3907435 0.02324872
0.3078519 0.3935316 0.0231634
0.3071719 0.3963136 0.02307498
0.3064671 0.3990894 0.02298348
0.3057378 0.4018588 0.02288892
0.3049838 0.4046214 0.02279132
0.3042053 0.4073771 0.0226907
0.3034024 0.4101257 0.02258709
0.302575 0.4128669 0.02248051
0.3017233 0.4156005 0.02237098
0.3008472 0.4183263 0.02225853
0.299947 0.4210441 0.02214319
0.2990226 0.4237536 0.02202499
0.2980741 0.4264547 0.02190394
0.2971016 0.4291471 0.02178008
0.2961051 0.4318306 0.02165344
0.2950848 0.434505 0.02152405
0.2940407 0.4371701 0.02139194
0.2929729 0.4398256 0.02125713
0.2918815 0.4424713 0.02111967
0.2907665 0.4451071 0.02097958
0.289628 0.4477327 0.02083689
0.2884662 0.4503479 0.02069165
0.2872811 0.4529524 0.02054387
0.2860728 0.4555462 0.02039361
0.2848414 0.4581289 0.0202409
0.283587 0.4607004 0.02008577
0.2823096 0.4632604 0.01992825
0.2810095 0.4658087 0.0197684
0.2796866 0.4683452 0.01960624
0.2783411 0.4708696 0.01944181
0.276973 0.4733818 0.01927517
0.2755826 0.4758814 0.01910633
0.2741698 0.4783684 0.01893536
0.2727349 0.4808425 0.01876229
0.2712778 0.4833035 0.01858715
0.2697988 0.4857512 0.01841001
0.2682979 0.4881854 0.01823089
0.2667753 0.4906059 0.01804985
0.265231 0.4930125 0.01786692
0.2636652 0.4954051 0.01768216
0.262078 0.4977833 0.01749562
0.2604696 0.5001471 0.01730733
0.2588399 0.5024962 0.01711735
0.2571893 0.5048305 0.01692572
0.2555178 0.5071497 0.0167325
0.2538254 0.5094537 0.01653773
0.2521125 0.5117422 0.01634147
0.250379 0.5140151 0.01614376
0.2486252 0.5162722 0.01594466
0.2468511 0.5185133 0.01574421
0.2450569 0.5207383 0.01554248
0.2432428 0.5229468 0.01533951
0.2414088 0.5251389 0.01513536
0.2395551 0.5273142 0.01493008
0.2376819 0.5294726 0.01472373
0.2357894 0.5316139 0.01451637
0.2338775 0.5337379 0.01430804
0.2319466 0.5358446 0.0140988
0.2299967 0.5379336 0.01388872
0.2280281 0.5400048 0.01367786
0.2260408 0.5420581 0.01346626
0.224035 0.5440932 0.01325399
0.2220108 0.5461101 0.0130411
0.2199686 0.5481085 0.01282767
0.2179082 0.5500883 0.01261374
0.2158301 0.5520492 0.01239938
0.2137342 0.5539912 0.01218465
0.2116209 0.5559141 0.01196961
0.2094901 0.5578178 0.01175433
0.2073422 0.559702 0.01153887
0.2051773 0.5615665 0.01132329
0.2029955 0.5634114 0.01110765
0.2007971 0.5652363 0.01089203
0.1985821 0.5670412 0.01067647
0.1963508 0.5688259 0.01046106
0.1941033 0.5705902 0.01024586
0.1918399 0.572334 0.01003093
0.1895607 0.5740571 0.009816337
0.1872659 0.5757595 0.009602152
0.1849556 0.5774409 0.009388442
0.1826301 0.5791012 0.009175274
0.1802895 0.5807403 0.008962717
0.1779341 0.582358 0.00875084
0.175564 0.5839543 0.008539713
0.1731793 0.5855289 0.008329405
0.1707804 0.5870817 0.008119986
0.1683673 0.5886127 0.007911528
0.1659403 0.5901216 0.0077041
0.1634996 0.5916084 0.007497775
0.1610454 0.5930729 0.007292623
0.1585778 0.594515 0.007088718
0.1560971 0.5959345 0.006886131
0.1536035 0.5973315 0.006684936
0.1510971 0.5987056 0.006485205
0.1485782 0.6000569 0.006287011
0.1460469 0.6013852 0.00609043
0.1435036 0.6026903 0.005895534
0.1409483 0.6039723 0.005702398
0.1383813 0.6052309 0.005511097
0.1358029 0.6064661 0.005321706
0.1332131 0.6076777 0.0051343
0.1306122 0.6088657 0.004948954
0.1280005 0.61003 0.004765746
0.1253781 0.6111704 0.00458475
0.1227453 0.6122869 0.004406043
0.1201023 0.6133793 0.004229703
0.1174493 0.6144476 0.004055805
0.1147865 0.6154917 0.003884426
0.1121141 0.6165114 0.003715645
0.1094323 0.6175068 0.003549538
0.1067414 0.6184777 0.003386184
0.1040417 0.6194241 0.00322566
0.1013332 0.6203458 0.003068045
0.09861629 0.6212427 0.002913417
0.09589114 0.6221149 0.002761854
0.09315798 0.6229622 0.002613435
0.09041704 0.6237846 0.002468239
0.08766855 0.6245819 0.002326344
0.08491273 0.6253542 0.002187831
0.08214982 0.6261013 0.002052778
0.07938005 0.6268232 0.001921264
0.07660364 0.6275199 0.00179337
0.07382083 0.6281912 0.001669174
0.07103186 0.6288371 0.001548756
0.06823695 0.6294576 0.001432196
0.06543634 0.6300526 0.001319575
0.06263027 0.6306221 0.00121097
0.05981898 0.631166 0.001106464
0.0570027 0.6316843 0.001006135
0.05418166 0.6321769 0.0009100637
0.05135611 0.6326437 0.0008183301
0.04852629 0.6330849 0.0007310142
0.04569243 0.6335002 0.0006481962
0.04285478 0.6338897 0.0005699559
0.04001358 0.6342534 0.0004963736
0.03716906 0.6345912 0.0004275291
0.03432148 0.6349031 0.0003635025
0.03147107 0.6351891 0.0003043738
0.02861808 0.6354491 0.0002502227
0.02576275 0.6356832 0.0002011292
0.02290532 0.6358913 0.0001571729
0.02004605 0.6360734 0.0001184336
0.01718517 0.6362295 8.499073e-05
0.01432293 0.6363596 5.692379e-05
0.01145958 0.6364637 3.43121e-05
0.008595369 0.6365417 1.723489e-05
0.005730535 0.6365938 5.771217e-06
0.00286533 0.6366198 0
0 0.6366198 0

LINES 349 1047
2 0 1
2 1 2
2 2 3
2 3 4
2 4 5
2 5 6
2 6 7
2 7 8
2 8 9
2 9 10
2 10 11
2 11 12
2 12 13
2 13 14
2 14 15
2 15 16
2 16 17
2 17 18
2 18 19
2 19 20
2 20 21
2 21 22
2 22 23
2 23 24
2 24 25
2 25 26
2 26 27
2 27 28
2 28 29
2 29 30
2 30 31
2 31 32
2 32 33
2 33 34
2 34 35
2 35 36
2 36 37
2 37 38
2 38 39
2 39 40
2 40 41
2 41 42
2 42 43
2 43 44
2 44 45
2 45 46
2 46 47
2 47 48
2 48 49
2 49 50
2 50 51
2 51 52
2 52 53
2 53 54
2 54 55
2 55 56
2 56 57
2 57 58
2 58 59
2 59 60
2 60 61
2 61 62
2 62 63
2 63 64
2 64 65
2 65 66
2 66 67
2 67 68
2 68 69
2 69 70
2 70 71
2 71 72
2 72 73
2 73 74
2 74 75
2 75 76
2 76 77
2 77 78
2 78 79
2 79 80
2 80 81
2 81 82
2 82 83
2 83 84
2 84 85
2 85 86
2 86 87
2 87 88
2 88 89
2 89 90
2 90 91
2 91 92
2 92 93
2 93 94
2 94 95
2 95 96
2 96 97
2 97 98
2 98 99
2 99 100
2 100 101
2 101 102
2 102 103
2 103 104
2 104 105
2 105 106
2 106 107
2 107 108
2 108 109
2 109 110
2 110 111
2 111 112
2 112 113
2 113 114
2 114 115
2 115 116
2 116 117
2 117 118
2 118 119
2 119 120
2 120 121
2 121 122
2 122 123
2 123 124
2 124 125
2 125 126
2 126 127
2 127 128
2 128 129
2 129 130
2 130 131
2 131 132
2 132 133
2 133 134
2 134 135
2 135 136
2 136 137
2 137 138
2 138 139
2 139 140
2 140 141
2 141 142
2 142 143
2 143 144
2 144 145
2 145 146
2 146 147
2 147 148
2 148 149
2 149 150
2 150 151
2 151 152
2 152 153
2 153 154
2 154 155
2 155 156
2 156 157
2 157 158
2 158 159
2 159 160
2 160 161
2 161 162
2 162 163
2 163 164
2 164 165
2 165 166
2 166 167
2 167 168
2 168 169
2 169 170
2 170 171
2 171 172
2 172 173
2 173 174
2 174 175
2 175 176
2 176 177
2 177 178
2 178 179
2 179 180
2 180 181
2 181 182
2 182 183
2 183 184
2 184 185
2 185 186
2 186 187
2 187 188
2 188 189
2 189 190
2 190 191
2 191 192
2 192 193
2 193 194
2 194 195
2 195 196
2 196 197
2 197 198
2 198 199
2 199 200
2 200 201
2 201 202
2 202 203
2 203 204
2 204 205
2 205 206
2 206 207
2 207 208
2 208 209
2 209 210
2 210 211
2 211 212
2 212 213
2 213 214
2 214 215
2 215 216
2 216 217
2 217 218
2 218 219
2 219 220
2 220 221
2 221 222
2 222 223
2 223 224
2 224 225
2 225 226
2 226 227
2 227 228
2 228 229
2 229 230
2 230 231
2 231 232
2 232 233
2 233 234
2 234 235
2 235 236
2 236 237
2 237 238
2 238 239
2 239 240
2 240 241
2 241 242
2 242 243
2 243 244
2 244 245
2 245 246
2 246 247
2 247 248
2 248 249
2 249 250
2 250 251
2 251 252
2 252 253
2 253 254
2 254 255
2 255 256
2 256 257
2 257 258
2 258 259
2 259 260
2 260 261
2 261 262
2 262 263
2 263 264
2 264 265
2 265 266
2 266 267
2 267 268
2 268 269
2 269 270
2 270 271
2 271 272
2 272 273
2 273 274
2 274 275
2 275 276
2 276 277
2 277 278
2 278 279
2 279 280
2 280 281
2 281 282
2 282 283
2 283 284
2 284 285
2 285 286
2 286 287
2 287 288
2 288 289
2 289 290
2 290 291
2 291 292
2 292 293
2 293 294
2 294 295
2 295 296
2 296 297
2 297 298
2 298 299
2 299 300
2 300 301
2 301 302
2 302 303
2 303 304
2 304 305
2 305 306
2 306 307
2 307 308
2 308 309
2 309 310
2 310 311
2 311 312
2 312 313
2 313 314
2 314 315
2 315 316
2 316 317
2 317 318
2 318 319
2 319 320
2 320 321
2 321 322
2 322 323
2 323 324
2 324 325
2 325 326
2 326 327
2 327 328
2 328 329
2 329 330
2 330 331
2 331 332
2 332 333
2 333 334
2 334 335
2 335 336
2 336 337
2 337 338
2 338 339
2 339 340
2 340 341
2 341 342
2 342 343
2 343 344
2 344 345
2 345 346
2 346 347
2 347 348
2 348 349


POINT_DATA 350
SCALARS a FLOAT 1
LOOKUP_TABLE default
0.0005894628
0.0005894628
0.0005894628
0.0005894628
0.0005894628
0.0005894628
0.0005894628
0.0005894628
0.0005894628
0.0005894628
0.0005894628
0.0005894628
0.0005894628
0.0005894628
0.0005894628
0.0005894628
0.0005894628
0.0005894628
0.0005894628
0.0005894628
0.0005894628
0.0005894628
0.0005894628
0.0005894628
0.0005894628
0.0005894628
0.0005894628
0.0005894628
0.0005894628
0.0005894628
0.0005894628
0.0005894628
0.0005894628
0.0005894628
0.0005894628
0.0005894628
0.0005894628
0.0005894628
0.0005894628
0.0005894628
0.0005894628
0.0005894628
0.0005894628
0.0005894628
0.0005894628
0.0005894628
0.0005894628
0.0005894628
0.0005894628
0.0005894628
0.0005894628
0.0005894628
0.0005894628
0.0005894628
0.0005894628
0.0005894628
0.0005894628
0.0005894628
0.0005894628
0.0005894628
0.0005894628
0.0005894628
0.0005894628
0.0005894628
0.0005894628
0.0005894628
0.0005894628
0.0005894628
0.0005894628
0.0005894628
0.0005894628
0.0005894628
0.0005894628
0.0005894628
0.0005894628
0.0005894628
0.0005894628
0.0005894628
0.0005894628
0.0005894628
0.0005894628
0.0005894628
0.0005894628
0.0005894628
0.0005894628
0.0005894628
0.0005894628
0.0005894628
0.0005894628
0.0005894628
0.0005894628
0.0005894628
0.0005894628
0.0005894628
0.0005894628
0.0005894628
0.0005894628
0.0005894628
0.0005894628
0.0005894628
0.0005894628
0.0005894628
0.0005894628
0.0005894628
0.0005894628
0.0005894628
0.0005894628
0.0005894628
0.0005894628
0.0005894628
0.0005894628
0.0005894628
0.0005894628
0.0005894628
0.0005894628
0.0005894628
0.0005894628
0.0005894628
0.0005894628
0.0005894628
0.0005894628
0.0005894628
0.0005894628
0.0005894628
0.0005894628
0.0005894628
0.0005894628
0.0005894628
0.0005894628
0.0005894628
0.0005894628
0.0005894628
0.0005894628
0.0005894628
0.0005894628
0.0005894628
0.0005894628
0.0005894628
0.0005894628
0.0005894628
0.0005894628
0.0005894628
0.0005894628
0.0005894628
0.0005894628
0.0005894628
0.0005894628
0.0005894628
0.0005894628
0.0005894628
0.0005894628
0.0005894628
0.0005894628
0.0005894628
0.0005894628
0.0005894628
0.0005894628
0.0005894628
0.0005894628
0.0005894628
0.0005894628
0.0005894628
0.0005894628
0.0005894628
0.0005894628
0.0005894628
0.0005894628
0.0005894628
0.0005894628
0.0005894628
0.0005894628
0.0005894628
0.0005894628
0.0005894628
0.0005894628
0.0005894628
0.0005894628
0.0005894628
0.0005894628
0.0005894628
0.0005894628
0.0005894628
0.0005894628
0.0005894628
0.0005894628
0.0005894628
0.0005894628
0.0005894628
0.0005894628
0.0005894628
0.0005894628
0.0005894628
0.0005894628
0.0005894628
0.0005894628
0.0005894628
0.0005894628
0.0005894628
0.0005894628
0.0005894628
0.0005894628
0.0005894628
0.0005894628
0.0005894628
0.0005894628
0.0005894628
0.0005894628
0.0005894628
0.0005894628
0.0005894628
0.0005894628
0.0005894628
0.0005894628
0.0005894628
0.0005894628
0.0005894628
0.0005894628
0.0005894628
0.0005894628
0.0005894628
0.0005894628
0.0005894628
0.0005894628
0.0005894628
0.0005894628
0.0005894628
0.0005894628
0.0005894628
0.0005894628
0.0005894628
0.0005894628
0.0005894628
0.0005894628
0.0005894628
0.0005894628
0.0005894628
0.0005894628
0.0005894628
0.0005894628
0.0005894628
0.0005894628
0.0005894628
0.0005894628
0.0005894628
0.0005894628
0.0005894628
0.0005894628
0.0005894628
0.0005894628
0.0005894628
0.0005894628
0.0005894628
0.0005894628
0.0005894628
0.0005894628
0.0005894628
0.0005894628
0.0005894628
0.0005894628
0.0005894628
0.0005894628
0.0005894628
0.0005894628
0.0005894628
0.0005894628
0.0005894628
0.0005894628
0.0005894628
0.0005894628
0.0005894628
0.0005894628
0.0005894628
0.0005894628
0.0005894628
0.0005894628
0.0005894628
0.0005894628
0.0005894628
0.0005894628
0.0005894628
0.0005894628
0.0005894628
0.0005894628
0.0005894628
0.0005894628
0.0005894628
0.0005894628
0.0005894628
0.0005894628
0.0005894628
0.0005894628
0.0005894628
0.0005894628
0.0005894628
0.0005894628
0.0005894628
0.0005894628
0.0005894628
0.0005894628
0.0005894628
0.0005894628
0.0005894628
0.0005894628
0.0005894628
0.0005894628
0.0005894628
0.0005894628
0.0005894628
0.0005894628
0.0005894628
0.0005894628
0.0005894628
0.0005894628
0.0005894628
0.0005894628
0.0005894628
0.0005894628
0.0005894628
0.0005894628
0.0005894628
0.0005894628
0.0005894628
0.0005894628
0.0005894628
0.0005894628
0.0005894628
0.0005894628
0.0005894628
0.0005894628
0.0005894628
0.0005894628
0.0005894628
0.0005894628
0.0005894628
0.0005894628
0.0005894628
0.0005894628
0.0005894628
0.0005894628
0.0005894628
0.0005894628
0.0005894628
0.0005894628
0.0005894628
0.0005894628
0.0005894628
0.0005894628
0.0005894628
0.0005894628
0.0005894628


SCALARS b FLOAT 1
LOOKUP_TABLE default
0.02357851
0.02357851
0.02357851
0.02357851
0.02357851
0.02357851
0.02357851
0.02357851
0.02357851
0.02357851
0.02357851
0.02357851
0.02357851
0.02357851
0.02357851
0.02357851
0.02357851
0.02357851
0.02357851
0.02357851
0.02357851
0.02357851
0.02357851
0.02357851
0.02357851
0.02357851
0.02357851
0.02357851
0.02357851
0.02357851
0.02357851
0.02357851
0.02357851
0.02357851
0.02357851
0.02357851
0.02357851
0.02357851
0.02357851
0.02357851
0.02357851
0.02357851
0.02357851
0.02357851
0.02357851
0.02357851
0.02357851
0.02357851
0.02357851
0.02357851
0.02357851
0.02357851
0.02357851
0.02357851
0.02357851
0.02357851
0.02357851
0.02357851
0.02357851
0.02357851
0.02357851
0.02357851
0.02357851
0.02357851
0.02357851
0.02357851
0.02357851
0.02357851
0.02357851
0.02357851
0.02357851
0.02357851
0.02357851
0.02357851
0.02357851
0.02357851
0.02357851
0.02357851
0.02357851
0.02357851
0.02357851
0.02357851
0.02357851
0.02357851
0.02357851
0.02357851
0.02357851
0.02357851
0.02357851
0.02357851
0.02357851
0.02357851
0.02357851
0.02357851
0.02357851
0.02357851
0.02357851
0.02357851
0.02357851
0.02357851
0.02357851
0.02357851
0.02357851
0.02357851
0.02357851
0.02357851
0.02357851
0.02357851
0.02357851
0.02357851
0.02357851
0.02357851
0.02357851
0.02357851
0.02357851
0.02357851
0.02357851
0.02357851
0.02357851
0.02357851
0.02357851
0.02357851
0.02357851
0.02357851
0.02357851
0.02357851
0.02357851
0.02357851
0.02357851
0.02357851
0.02357851
0.02357851
0.02357851
0.02357851
0.02357851
0.02357851
0.02357851
0.02357851
0.02357851
0.02357851
0.02357851
0.02357851
0.02357851
0.02357851
0.02357851
0.02357851
0.02357851
0.02357851
0.02357851
0.02357851
0.02357851
0.02357851
0.02357851
0.02357851
0.02357851
0.02357851
0.02357851
0.02357851
0.02357851
0.02357851
0.02357851
0.02357851
0.02357851
0.02357851
0.02357851
0.02357851
0.02357851
0.02357851
0.02357851
0.02357851
0.02357851
0.02357851
0.02357851
0.02357851
0.02357851
0.02357851
0.02357851
0.02357851
0.02357851
0.02357851
0.02357851
0.02357851
0.02357851
0.02357851
0.02357851
0.02357851
0.02357851
0.02357851
0.02357851
0.02357851
0.02357851
0.02357851
0.02357851
0.02357851
0.02357851
0.02357851
0.02357851
0.02357851
0.02357851
0.02357851
0.02357851
0.02357851
0.02357851
0.02357851
0.02357851
0.02357851
0.02357851
0.02357851
0.02357851
0.02357851
0.02357851
0.02357851
0.02357851
0.02357851
0.02357851
0.02357851
0.02357851
0.02357851
0.02357851
0.02357851
0.02357851
0.02357851
0.02357851
0.02357851
0.02357851
0.02357851
0.02357851
0.02357851
0.02357851
0.02357851
0.02357851
0.02357851
0.02357851
0.02357851
0.02357851
0.02357851
0.02357851
0.02357851
0.02357851
0.02357851
0.02357851
0.02357851
0.02357851
0.02357851
0.02357851
0.02357851
0.02357851
0.02357851
0.02357851
0.02357851
0.02357851
0.02357851
0.02357851
0.02357851
0.02357851
0.02357851
0.02357851
0.02357851
0.02357851
0.02357851
0.02357851
0.02357851
0.02357851
0.02357851
0.02357851
0.02357851
0.02357851
0.02357851
0.02357851
0.02357851
0.02357851
0.02357851
0.02357851
0.02357851
0.02357851
0.02357851
0.02357851
0.02357851
0.02357851
0.02357851
0.02357851
0.02357851
0.02357851
0.02357851
0.02357851
0.02357851
0.02357851
0.02357851
0.02357851
0.02357851
0.02357851
0.02357851
0.02357851
0.02357851
0.02357851
0.02357851
0.02357851
0.02357851
0.02357851
0.02357851
0.02357851
0.02357851
0.02357851
0.02357851
0.02357851
0.02357851
0.02357851
0.02357851
0.02357851
0.02357851
0.02357851
0.02357851
0.02357851
0.02357851
0.02357851
0.02357851
0.02357851
0.02357851
0.02357851
0.02357851
0.02357851
0.02357851
0.02357851
0.02357851
0.02357851
0.02357851
0.02357851
0.02357851
0.02357851
0.02357851
0.02357851
0.02357851
0.02357851
0.02357851
0.02357851
0.02357851
0.02357851
0.02357851
0.02357851
0.02357851
0.02357851
0.02357851
0.02357851
0.02357851
0.02357851
0.02357851
0.02357851
0.02357851
0.02357851
0.02357851


VECTORS d1 FLOAT
0 0.9759168 0.2181432
-0.009299879 0.9765087 0.2152774
-0.01859521 0.9770052 0.2124029
-0.02788511 0.9774066 0.2095202
-0.03716872 0.977713 0.2066296
-0.04644518 0.9779245 0.2037315
-0.05571362 0.9780413 0.2008263
-0.0649732 0.9780636 0.1979144
-0.07422306 0.9779915 0.1949963
-0.08346236 0.9778253 0.1920722
-0.09269025 0.9775652 0.1891425
-0.1019059 0.9772113 0.1862077
-0.1111085 0.9767639 0.1832682
-0.1202971 0.9762232 0.1803243
-0.1294711 0.9755895 0.1773763
-0.1386295 0.974863 0.1744248
-0.1477716 0.9740439 0.17147
-0.1568965 0.9731326 0.1685124
-0.1660034 0.9721293 0.1655523
-0.1750916 0.9710342 0.1625901
-0.1841602 0.9698477 0.1596262
-0.1932084 0.96857 0.1566609
-0.2022356 0.9672015 0.1536947
-0.2112408 0.9657424 0.1507279
-0.2202234 0.9641931 0.1477609
-0.2291825 0.9625539 0.144794
-0.2381174 0.9608252 0.1418276
-0.2470273 0.9590072 0.1388622
-0.2559116 0.9571003 0.1358979
-0.2647694 0.9551049 0.1329353
-0.2736 0.9530213 0.1299747
-0.2824026 0.9508499 0.1270165
-0.2911766 0.9485911 0.1240609
-0.2999212 0.9462452 0.1211084
-0.3086357 0.9438127 0.1181593
-0.3173194 0.9412939 0.115214
-0.3259716 0.9386892 0.1122728
-0.3345915 0.935999 0.1093361
-0.3431786 0.9332238 0.1064043
-0.351732 0.9303639 0.1034776
-0.3602512 0.9274198 0.1005564
-0.3687354 0.9243919 0.09764116
-0.3771839 0.9212807 0.0947321
-0.3855962 0.9180866 0.0918296
-0.3939714 0.91481 0.08893399
-0.4023091 0.9114513 0.08604561
-0.4106085 0.9080112 0.0831648
-0.418869 0.9044899 0.0802919
-0.4270899 0.900888 0.07742723
-0.4352707 0.897206 0.07457112
-0.4434106 0.8934443 0.07172389
-0.4515092 0.8896034 0.06888588
-0.4595657 0.8856838 0.06605741
-0.4675795 0.881686 0.0632388
-0.4755501 0.8776105 0.06043036
-0.4834769 0.8734578 0.05763241
-0.4913592 0.8692284 0.05484527
-0.4991966 0.8649229 0.05206924
-0.5069883 0.8605416 0.04930465
-0.5147338 0.8560853 0.04655178
-0.5224327 0.8515543 0.04381096
-0.5300842 0.8469492 0.04108248
-0.5376879 0.8422706 0.03836665
-0.5452432 0.8375189 0.03566376
-0.5527495 0.8326948 0.0329741
-0.5602064 0.8277988 0.03029798
-0.5676133 0.8228314 0.02763567
-0.5749696 0.8177931 0.02498748
-0.5822749 0.8126846 0.02235369
-0.5895286 0.8075064 0.01973458
-0.5967302 0.8022591 0.01713043
-0.6038793 0.7969432 0.01454152
-0.6109752 0.7915592 0.01196813
-0.6180177 0.7861079 0.009410534
-0.625006 0.7805897 0.006869002
-0.6319399 0.7750053 0.004343804
-0.6388187 0.7693551 0.001835206
-0.6456421 0.7636399 -0.0006565272
-0.6524095 0.7578602 -0.003131134
-0.6591206 0.7520165 -0.005588356
-0.6657748 0.7461096 -0.008027935
-0.6723717 0.7401399 -0.01044962
-0.6789109 0.7341081 -0.01285315
-0.685392 0.7280148 -0.01523829
-0.6918145 0.7218606 -0.01760479
-0.698178 0.7156462 -0.0199524
-0.704482 0.709372 -0.02228088
-0.7107262 0.7030388 -0.02459
-0.7169102 0.6966472 -0.02687951
-0.7230335 0.6901977 -0.02914919
-0.7290958 0.683691 -0.0313988
-0.7350967 0.6771277 -0.03362811
-0.7410358 0.6705085 -0.03583691
-0.7469127 0.663834 -0.03802496
-0.752727 0.6571048 -0.04019205
-0.7584784 0.6503215 -0.04233796
-0.7641665 0.6434847 -0.04446247
-0.769791 0.6365952 -0.04656537
-0.7753515 0.6296536 -0.04864645
-0.7808476 0.6226604 -0.05070551
-0.786279 0.6156164 -0.05274235
-0.7916454 0.6085222 -0.05475675
-0.7969465 0.6013783 -0.05674852
-0.8021819 0.5941856 -0.05871746
-0.8073513 0.5869445 -0.06066338
-0.8124543 0.5796559 -0.0625861
-0.8174908 0.5723202 -0.06448541
-0.8224603 0.5649382 -0.06636114
-0.8273626 0.5575106 -0.06821311
-0.8321974 0.5500379 -0.07004113
-0.8369644 0.5425209 -0.07184502
-0.8416632 0.5349602 -0.07362461
-0.8462937 0.5273565 -0.07537973
-0.8508556 0.5197103 -0.07711021
-0.8553485 0.5120225 -0.07881588
-0.8597722 0.5042936 -0.08049659
-0.8641265 0.4965244 -0.08215216
-0.8684111 0.4887154 -0.08378243
-0.8726257 0.4808674 -0.08538727
-0.8767701 0.4729809 -0.0869665
-0.8808441 0.4650568 -0.08851998
-0.8848474 0.4570957 -0.09004756
-0.8887799 0.4490981 -0.0915491
-0.8926411 0.4410649 -0.09302446
-0.8964311 0.4329967 -0.09447349
-0.9001494 0.4248941 -0.09589606
-0.903796 0.4167578 -0.09729204
-0.9073706 0.4085885 -0.09866128
-0.910873 0.400387 -0.1000037
-0.914303 0.3921537 -0.1013191
-0.9176604 0.3838895 -0.1026074
-0.920945 0.3755951 -0.1038685
-0.9241567 0.367271 -0.1051022
-0.9272952 0.358918 -0.1063085
-0.9303604 0.3505367 -0.1074872
-0.9333522 0.3421279 -0.1086382
-0.9362702 0.3336922 -0.1097615
-0.9391145 0.3252303 -0.1108568
-0.9418848 0.3167428 -0.1119242
-0.9445809 0.3082306 -0.1129635
-0.9472028 0.2996942 -0.1139746
-0.9497503 0.2911343 -0.1149574
-0.9522232 0.2825517 -0.1159118
-0.9546214 0.2739469 -0.1168378
-0.9569448 0.2653208 -0.1177352
-0.9591932 0.256674 -0.118604
-0.9613665 0.2480071 -0.1194441
-0.9634647 0.2393208 -0.1202554
-0.9654875 0.2306159 -0.1210379
-0.9674349 0.2218931 -0.1217914
-0.9693068 0.2131529 -0.1225159
-0.9711031 0.2043962 -0.1232114
-0.9728236 0.1956236 -0.1238777
-0.9744683 0.1868357 -0.1245149
-0.9760371 0.1780334 -0.1251228
-0.9775299 0.1692171 -0.1257014
-0.9789466 0.1603878 -0.1262506
-0.9802872 0.151546 -0.1267704
-0.9815516 0.1426924 -0.1272608
-0.9827397 0.1338278 -0.1277217
-0.9838514 0.1249528 -0.1281531
-0.9848867 0.1160681 -0.1285548
-0.9858456 0.1071744 -0.128927
-0.9867279 0.09827238 -0.1292695
-0.9875337 0.08936276 -0.1295823
-0.9882628 0.08044621 -0.1298654
-0.9889153 0.07152344 -0.1301188
-0.9894911 0.06259513 -0.1303425
-0.9899902 0.05366197 -0.1305363
-0.9904126 0.04472465 -0.1307004
-0.9907582 0.03578388 -0.1308346
-0.991027 0.02684033 -0.1309391
-0.991219 0.01789471 -0.1310137
-0.9913343 0.0089477 -0.1310584
-0.9913727 -2.258402e-12 -0.1310733
-0.9913343 -0.0089477 -0.1310584
-0.991219 -0.01789471 -0.1310137
-0.991027 -0.02684033 -0.1309391
-0.9907582 -0.03578388 -0.1308346
-0.9904126 -0.04472465 -0.1307004
-0.9899902 -0.05366197 -0.1305363
-0.9894911 -0.06259513 -0.1303425
-0.9889153 -0.07152344 -0.1301188
-0.9882628 -0.08044621 -0.1298654
-0.9875337 -0.08936276 -0.1295823
-0.9867279 -0.09827238 -0.1292695
-0.9858456 -0.1071744 -0.128927
-0.9848867 -0.1160681 -0.1285548
-0.9838514 -0.1249528 -0.1281531
-0.9827397 -0.1338278 -0.1277217
-0.9815516 -0.1426924 -0.1272608
-0.9802872 -0.151546 -0.1267704
-0.9789466 -0.1603878 -0.1262506
-0.9775299 -0.1692171 -0.1257014
-0.9760371 -0.1780334 -0.1251228
-0.9744683 -0.1868357 -0.1245149
-0.9728236 -0.1956236 -0.1238777
-0.9711031 -0.2043962 -0.1232114
-0.9693068 -0.2131529 -0.1225159
-0.9674349 -0.2218931 -0.1217914
-0.9654875 -0.2306159 -0.1210379
-0.9634647 -0.2393208 -0.1202554
-0.9613665 -0.2480071 -0.1194441
-0.9591932 -0.256674 -0.118604
-0.9569448 -0.2653208 -0.1177352
-0.9546214 -0.2739469 -0.1168378
-0.9522232 -0.2825517 -0.1159118
-0.9497503 -0.2911343 -0.1149574
-0.9472028 -0.2996942 -0.1139746
-0.9445809 -0.3082306 -0.1129635
-0.9418848 -0.3167428 -0.1119242
-0.9391145 -0.3252303 -0.1108568
-0.9362702 -0.3336922 -0.1097615
-0.9333522 -0.3421279 -0.1086382
-0.9303604 -0.3505367 -0.1074872
-0.9272952 -0.358918 -0.1063085
-0.9241567 -0.367271 -0.1051022
-0.920945 -0.3755951 -0.1038685
-0.9176604 -0.3838895 -0.1026074