# vtk DataFile Version 2.0
Written badly by Kevin Korner
ASCII
DATASET POLYDATA
POINTS 350 FLOAT
0 0 0
0.00286533 0 0
0.00572806 4.634403e-05 -0.0001128766
0.008583501 0.0001342819 -0.0003338607
0.01142769 0.0002591666 -0.0006580448
0.01425734 0.0004165199 -0.001080446
0.01706979 0.0006020778 -0.001596057
0.01986291 0.0008118212 -0.002199878
0.0226351 0.001041996 -0.002886947
0.02538523 0.001289122 -0.003652352
0.02811255 0.001550003 -0.004491247
0.03081673 0.001821723 -0.005398849
0.03349773 0.002101646 -0.00637044
0.03615586 0.002387416 -0.007401355
0.03879171 0.002676952 -0.008486965
0.04140616 0.002968448 -0.009622653
0.04400036 0.003260371 -0.01080377
0.04657573 0.003551471 -0.01202559
0.04913403 0.003840793 -0.01328318
0.05167738 0.004127712 -0.01457125
0.05420849 0.004412001 -0.01588381
0.05673101 0.004694016 -0.01721327
0.05925124 0.00497537 -0.01854721
0.06177716 0.005259016 -0.01986985
0.06431271 0.005547068 -0.02117298
0.06686015 0.005841338 -0.02245127
0.06942093 0.006143555 -0.02370074
0.07199597 0.006455421 -0.02491813
0.0745858 0.006778635 -0.02610069
0.07719063 0.007114893 -0.02724607
0.07981043 0.007465887 -0.02835222
0.08244493 0.007833305 -0.02941735
0.08509369 0.008218821 -0.03043989
0.08775606 0.008624091 -0.03141849
0.09043125 0.009050745 -0.03235198
0.09311835 0.009500378 -0.03323936
0.0958163 0.009974551 -0.03407981
0.09852394 0.01047478 -0.03487265
0.10124 0.01100252 -0.03561737
0.1039631 0.01155917 -0.0363136
0.1066919 0.01214609 -0.03696109
0.1094249 0.01276455 -0.03755976
0.1121606 0.01341574 -0.03810963
0.1148973 0.01410081 -0.03861085
0.1176335 0.0148208 -0.03906369
0.1203675 0.01557669 -0.03946853
0.1230977 0.01636936 -0.03982585
0.1258225 0.01719962 -0.04013624
0.1285402 0.01806819 -0.04040038
0.1312492 0.0189757 -0.04061904
0.1339479 0.01992271 -0.04079306
0.1366347 0.02090967 -0.04092336
0.1393081 0.02193698 -0.04101095
0.1419666 0.02300493 -0.04105686
0.1446087 0.02411373 -0.04106222
0.147233 0.02526354 -0.04102817
0.1498381 0.02645441 -0.04095594
0.1524228 0.02768634 -0.04084674
0.1549858 0.02895925 -0.04070186
0.1575259 0.03027299 -0.0405226
0.1600419 0.03162735 -0.04031026
0.162533 0.03302207 -0.04006619
0.164998 0.03445682 -0.03979173
0.1674361 0.03593123 -0.03948822
0.1698463 0.03744486 -0.03915701
0.172228 0.03899725 -0.03879946
0.1745804 0.04058789 -0.03841688
0.1769028 0.04221621 -0.03801062
0.1791946 0.04388164 -0.03758198
0.1814555 0.04558357 -0.03713226
0.1836848 0.04732134 -0.03666272
0.1858822 0.0490943 -0.03617463
0.1880473 0.05090176 -0.0356692
0.1901799 0.052743 -0.03514764
0.1922797 0.05461732 -0.03461111
0.1943465 0.05652398 -0.03406075
0.1963803 0.05846224 -0.03349768
0.1983809 0.06043136 -0.03292296
0.2003483 0.06243058 -0.03233764
0.2022825 0.06445916 -0.03174272
0.2041835 0.06651634 -0.03113919
0.2060514 0.06860136 -0.03052797
0.2078864 0.07071349 -0.02990998
0.2096885 0.07285197 -0.02928608
0.211458 0.07501608 -0.02865711
0.2131951 0.07720509 -0.02802388
0.2148999 0.07941827 -0.02738714
0.2165728 0.08165492 -0.02674764
0.218214 0.08391433 -0.02610607
0.2198238 0.08619584 -0.02546311
0.2214026 0.08849875 -0.02481939
0.2229505 0.0908224 -0.02417553
0.224468 0.09316616 -0.02353209
0.2259555 0.09552939 -0.02288964
0.2274132 0.09791147 -0.02224869
0.2288416 0.1003118 -0.02160974
0.2302411 0.1027298 -0.02097326
0.2316119 0.1051648 -0.02033968
0.2329545 0.1076164 -0.01970943
0.2342694 0.1100839 -0.0190829
0.2355568 0.1125669 -0.01846047
0.2368172 0.1150648 -0.01784249
0.238051 0.1175772 -0.01722928
0.2392586 0.1201035 -0.01662116
0.2404403 0.1226432 -0.01601842
0.2415966 0.125196 -0.01542134
0.2427278 0.1277613 -0.01483016
0.2438344 0.1303388 -0.01424514
0.2449167 0.132928 -0.01366649
0.2459751 0.1355285 -0.01309442
0.24701 0.1381399 -0.01252914
0.2480217 0.1407619 -0.01197082
0.2490106 0.1433941 -0.01141964
0.2499772 0.1460361 -0.01087575
0.2509216 0.1486875 -0.0103393
0.2518443 0.1513482 -0.009810425
0.2527456 0.1540177 -0.009289253
0.2536259 0.1566957 -0.008775902
0.2544855 0.1593819 -0.00827048
0.2553246 0.1620761 -0.007773085
0.2561437 0.1647779 -0.007283812
0.2569429 0.1674871 -0.006802744
0.2577227 0.1702035 -0.00632996
0.2584833 0.1729267 -0.005865533
0.2592249 0.1756565 -0.005409527
0.2599479 0.1783928 -0.004962003
0.2606526 0.1811352 -0.004523016
0.2613391 0.1838836 -0.004092618
0.2620078 0.1866377 -0.003670853
0.2626589 0.1893973 -0.003257764
0.2632926 0.1921623 -0.002853389
0.2639092 0.1949324 -0.002457763
0.2645089 0.1977074 -0.002070916
0.2650918 0.2004872 -0.001692877
0.2656583 0.2032716 -0.001323672
0.2662086 0.2060604 -0.0009633239
0.2667427 0.2088535 -0.0006118533
0.267261 0.2116507 -0.0002692789
0.2677635 0.2144518 6.438265e-05
0.2682506 0.2172567 0.0003891163
0.2687223 0.2200652 0.0007049086
0.2691788 0.2228773 0.001011748
0.2696202 0.2256927 0.001309623
0.2700468 0.2285113 0.001598525
0.2704587 0.231333 0.001878446
0.270856 0.2341577 0.002149377
0.2712388 0.2369853 0.002411313
0.2716073 0.2398155 0.002664247
0.2719616 0.2426484 0.002908175
0.2723018 0.2454837 0.003143091
0.2726281 0.2483214 0.003368993
0.2729405 0.2511614 0.003585876
0.2732391 0.2540035 0.003793737
0.2735241 0.2568477 0.003992575
0.2737956 0.2596938 0.004182385
0.2740535 0.2625418 0.004363167
0.274298 0.2653915 0.004534918
0.2745293 0.2682429 0.004697636
0.2747473 0.2710957 0.004851321
0.2749521 0.2739501 0.004995971
0.2751438 0.2768058 0.005131585
0.2753225 0.2796627 0.005258162
0.2754881 0.2825208 0.0053757
0.2756409 0.28538 0.0054842
0.2757807 0.2882402 0.005583661
0.2759077 0.2911013 0.005674081
0.2760219 0.2939632 0.005755461
0.2761233 0.2968258 0.0058278
0.2762119 0.2996891 0.005891097
0.2762879 0.3025529 0.005945352
0.2763511 0.3054172 0.005990566
0.2764017 0.3082818 0.006026736
0.2764396 0.3111468 0.006053865
0.2764649 0.3140119 0.00607195
0.2764775 0.3168772 0.006080993
0.2764775 0.3197426 0.006080993
0.2764649 0.3226078 0.00607195
0.2764396 0.325473 0.006053865
0.2764017 0.3283379 0.006026736
0.2763511 0.3312026 0.005990566
0.2762879 0.3340669 0.005945352
0.2762119 0.3369307 0.005891097
0.2761233 0.3397939 0.0058278
0.2760219 0.3426566 0.005755461
0.2759077 0.3455185 0.005674081
0.2757807 0.3483795 0.005583661
0.2756409 0.3512397 0.0054842
0.2754881 0.3540989 0.0053757
0.2753225 0.3569571 0.005258162
0.2751438 0.359814 0.005131585
0.2749521 0.3626697 0.004995971
0.2747473 0.365524 0.004851321
0.2745293 0.3683769 0.004697636
0.274298 0.3712283 0.004534918
0.2740535 0.374078 0.004363167
0.2737956 0.3769259 0.004182385
0.2735241 0.3797721 0.003992575
0.2732391 0.3826162 0.003793738
0.2729405 0.3854584 0.003585876
0.2726281 0.3882983 0.003368993
0.2723018 0.3911361 0.003143091
0.2719616 0.3939714 0.002908175
0.2716073 0.3968043 0.002664247
0.2712388 0.3996345 0.002411313
0.270856 0.4024621 0.002149377
0.2704587 0.4052867 0.001878446
0.2700468 0.4081085 0.001598525
0.2696202 0.4109271 0.001309623
0.2691788 0.4137425 0.001011748
0.2687223 0.4165545 0.0007049087
0.2682506 0.4193631 0.0003891164
0.2677635 0.422168 6.438274e-05
0.267261 0.4249691 -0.0002692788
0.2667427 0.4277663 -0.0006118532
0.2662086 0.4305593 -0.0009633238
0.2656583 0.4333481 -0.001323672
0.2650918 0.4361325 -0.001692877
0.2645089 0.4389124 -0.002070916
0.2639092 0.4416874 -0.002457762
0.2632926 0.4444575 -0.002853389
0.2626589 0.4472225 -0.003257764
0.2620078 0.4499821 -0.003670853
0.2613391 0.4527362 -0.004092618
0.2606526 0.4554846 -0.004523016
0.2599479 0.458227 -0.004962003
0.2592249 0.4609632 -0.005409527
0.2584833 0.4636931 -0.005865533
0.2577227 0.4664163 -0.00632996
0.2569429 0.4691327 -0.006802744
0.2561437 0.4718419 -0.007283812
0.2553246 0.4745437 -0.007773085
0.2544855 0.4772379 -0.008270479
0.2536259 0.4799241 -0.008775902
0.2527456 0.4826021 -0.009289253
0.2518443 0.4852716 -0.009810425
0.2509216 0.4879322 -0.0103393
0.2499772 0.4905837 -0.01087575
0.2490106 0.4932257 -0.01141964
0.2480217 0.4958579 -0.01197082
0.24701 0.4984799 -0.01252914
0.2459751 0.5010913 -0.01309442
0.2449167 0.5036918 -0.01366649
0.2438344 0.506281 -0.01424514
0.2427278 0.5088585 -0.01483016
0.2415966 0.5114238 -0.01542134
0.2404403 0.5139766 -0.01601842
0.2392586 0.5165163 -0.01662116
0.238051 0.5190426 -0.01722928
0.2368172 0.5215549 -0.01784249
0.2355568 0.5240529 -0.01846047
0.2342694 0.5265358 -0.0190829
0.2329545 0.5290034 -0.01970943
0.2316119 0.531455 -0.02033968
0.2302411 0.53389 -0.02097326
0.2288416 0.536308 -0.02160974
0.2274132 0.5387083 -0.02224869
0.2259555 0.5410904 -0.02288964
0.224468 0.5434536 -0.02353209
0.2229505 0.5457974 -0.02417553
0.2214026 0.548121 -0.02481939
0.2198238 0.5504239 -0.02546311
0.218214 0.5527054 -0.02610607
0.2165728 0.5549649 -0.02674764
0.2148999 0.5572015 -0.02738714
0.2131951 0.5594147 -0.02802388
0.211458 0.5616037 -0.02865711
0.2096885 0.5637678 -0.02928608
0.2078864 0.5659063 -0.02990998
0.2060514 0.5680184 -0.03052797
0.2041835 0.5701034 -0.03113919
0.2022825 0.5721606 -0.03174272
0.2003483 0.5741892 -0.03233764
0.1983809 0.5761884 -0.03292296
0.1963803 0.5781575 -0.03349768
0.1943465 0.5800958 -0.03406075
0.1922797 0.5820025 -0.03461111
0.1901799 0.5838768 -0.03514764
0.1880473 0.585718 -0.0356692
0.1858822 0.5875255 -0.03617463
0.1836848 0.5892984 -0.03666272
0.1814555 0.5910362 -0.03713226
0.1791946 0.5927381 -0.03758198
0.1769028 0.5944036 -0.03801062
0.1745804 0.5960319 -0.03841688
0.172228 0.5976225 -0.03879946
0.1698463 0.5991749 -0.03915701
0.1674361 0.6006885 -0.03948822
0.164998 0.6021629 -0.03979173
0.162533 0.6035977 -0.04006619
0.1600419 0.6049924 -0.04031026
0.1575259 0.6063468 -0.0405226
0.1549858 0.6076605 -0.04070186
0.1524228 0.6089334 -0.04084674
0.1498381 0.6101654 -0.04095594
0.147233 0.6113562 -0.04102817
0.1446087 0.612506 -0.04106222
0.1419666 0.6136148 -0.04105686
0.1393081 0.6146828 -0.04101095
0.1366347 0.6157101 -0.04092336
0.1339479 0.6166971 -0.04079306
0.1312492 0.6176441 -0.04061904
0.1285402 0.6185516 -0.04040038
0.1258225 0.6194202 -0.04013624
0.1230977 0.6202504 -0.03982585
0.1203675 0.6210431 -0.03946853
0.1176335 0.621799 -0.03906369
0.1148973 0.622519 -0.03861085
0.1121606 0.623204 -0.03810963
0.1094249 0.6238552 -0.03755976
0.1066919 0.6244737 -0.03696109
0.1039631 0.6250606 -0.0363136
0.10124 0.6256173 -0.03561737
0.09852394 0.626145 -0.03487265
0.0958163 0.6266452 -0.03407981
0.09311835 0.6271194 -0.03323936
0.09043125 0.627569 -0.03235198
0.08775606 0.6279957 -0.03141849
0.08509369 0.628401 -0.03043989
0.08244493 0.6287865 -0.02941735
0.07981043 0.6291539 -0.02835222
0.07719063 0.6295049 -0.02724607
0.0745858 0.6298411 -0.02610069
0.07199597 0.6301644 -0.02491813
0.06942093 0.6304762 -0.02370074
0.06686015 0.6307784 -0.02245127
0.06431271 0.6310727 -0.02117298
0.06177716 0.6313608 -0.01986985
0.05925124 0.6316444 -0.01854721
0.05673101 0.6319258 -0.01721327
0.05420849 0.6322078 -0.01588381
0.05167738 0.6324921 -0.01457125
0.04913403 0.632779 -0.01328318
0.04657573 0.6330683 -0.01202559
0.04400036 0.6333594 -0.01080377
0.04140616 0.6336513 -0.009622653
0.03879171 0.6339428 -0.008486965
0.03615586 0.6342324 -0.007401355
0.03349773 0.6345181 -0.00637044
0.03081673 0.634798 -0.005398849
0.02811255 0.6350698 -0.004491247
0.02538523 0.6353306 -0.003652352
0.0226351 0.6355778 -0.002886947
0.01986291 0.635808 -0.002199878
0.01706979 0.6360177 -0.001596057
0.01425734 0.6362033 -0.001080446
0.01142769 0.6363606 -0.0006580448
0.008583501 0.6364855 -0.0003338607
0.00572806 0.6365734 -0.0001128766
0.00286533 0.6366198 0
0 0.6366198 0

LINES 349 1047
2 0 1
2 1 2
2 2 3
2 3 4
2 4 5
2 5 6
2 6 7
2 7 8
2 8 9
2 9 10
2 10 11
2 11 12
2 12 13
2 13 14
2 14 15
2 15 16
2 16 17
2 17 18
2 18 19
2 19 20
2 20 21
2 21 22
2 22 23
2 23 24
2 24 25
2 25 26
2 26 27
2 27 28
2 28 29
2 29 30
2 30 31
2 31 32
2 32 33
2 33 34
2 34 35
2 35 36
2 36 37
2 37 38
2 38 39
2 39 40
2 40 41
2 41 42
2 42 43
2 43 44
2 44 45
2 45 46
2 46 47
2 47 48
2 48 49
2 49 50
2 50 51
2 51 52
2 52 53
2 53 54
2 54 55
2 55 56
2 56 57
2 57 58
2 58 59
2 59 60
2 60 61
2 61 62
2 62 63
2 63 64
2 64 65
2 65 66
2 66 67
2 67 68
2 68 69
2 69 70
2 70 71
2 71 72
2 72 73
2 73 74
2 74 75
2 75 76
2 76 77
2 77 78
2 78 79
2 79 80
2 80 81
2 81 82
2 82 83
2 83 84
2 84 85
2 85 86
2 86 87
2 87 88
2 88 89
2 89 90
2 90 91
2 91 92
2 92 93
2 93 94
2 94 95
2 95 96
2 96 97
2 97 98
2 98 99
2 99 100
2 100 101
2 101 102
2 102 103
2 103 104
2 104 105
2 105 106
2 106 107
2 107 108
2 108 109
2 109 110
2 110 111
2 111 112
2 112 113
2 113 114
2 114 115
2 115 116
2 116 117
2 117 118
2 118 119
2 119 120
2 120 121
2 121 122
2 122 123
2 123 124
2 124 125
2 125 126
2 126 127
2 127 128
2 128 129
2 129 130
2 130 131
2 131 132
2 132 133
2 133 134
2 134 135
2 135 136
2 136 137
2 137 138
2 138 139
2 139 140
2 140 141
2 141 142
2 142 143
2 143 144
2 144 145
2 145 146
2 146 147
2 147 148
2 148 149
2 149 150
2 150 151
2 151 152
2 152 153
2 153 154
2 154 155
2 155 156
2 156 157
2 157 158
2 158 159
2 159 160
2 160 161
2 161 162
2 162 163
2 163 164
2 164 165
2 165 166
2 166 167
2 167 168
2 168 169
2 169 170
2 170 171
2 171 172
2 172 173
2 173 174
2 174 175
2 175 176
2 176 177
2 177 178
2 178 179
2 179 180
2 180 181
2 181 182
2 182 183
2 183 184
2 184 185
2 185 186
2 186 187
2 187 188
2 188 189
2 189 190
2 190 191
2 191 192
2 192 193
2 193 194
2 194 195
2 195 196
2 196 197
2 197 198
2 198 199
2 199 200
2 200 201
2 201 202
2 202 203
2 203 204
2 204 205
2 205 206
2 206 207
2 207 208
2 208 209
2 209 210
2 210 211
2 211 212
2 212 213
2 213 214
2 214 215
2 215 216
2 216 217
2 217 218
2 218 219
2 219 220
2 220 221
2 221 222
2 222 223
2 223 224
2 224 225
2 225 226
2 226 227
2 227 228
2 228 229
2 229 230
2 230 231
2 231 232
2 232 233
2 233 234
2 234 235
2 235 236
2 236 237
2 237 238
2 238 239
2 239 240
2 240 241
2 241 242
2 242 243
2 243 244
2 244 245
2 245 246
2 246 247
2 247 248
2 248 249
2 249 250
2 250 251
2 251 252
2 252 253
2 253 254
2 254 255
2 255 256
2 256 257
2 257 258
2 258 259
2 259 260
2 260 261
2 261 262
2 262 263
2 263 264
2 264 265
2 265 266
2 266 267
2 267 268
2 268 269
2 269 270
2 270 271
2 271 272
2 272 273
2 273 274
2 274 275
2 275 276
2 276 277
2 277 278
2 278 279
2 279 280
2 280 281
2 281 282
2 282 283
2 283 284
2 284 285
2 285 286
2 286 287
2 287 288
2 288 289
2 289 290
2 290 291
2 291 292
2 292 293
2 293 294
2 294 295
2 295 296
2 296 297
2 297 298
2 298 299
2 299 300
2 300 301
2 301 302
2 302 303
2 303 304
2 304 305
2 305 306
2 306 307
2 307 308
2 308 309
2 309 310
2 310 311
2 311 312
2 312 313
2 313 314
2 314 315
2 315 316
2 316 317
2 317 318
2 318 319
2 319 320
2 320 321
2 321 322
2 322 323
2 323 324
2 324 325
2 325 326
2 326 327
2 327 328
2 328 329
2 329 330
2 330 331
2 331 332
2 332 333
2 333 334
2 334 335
2 335 336
2 336 337
2 337 338
2 338 339
2 339 340
2 340 341
2 341 342
2 342 343
2 343 344
2 344 345
2 345 346
2 346 347
2 347 348
2 348 349


POINT_DATA 350
SCALARS a FLOAT 1
LOOKUP_TABLE default
0.0005894628
0.0005894628
0.0005894628
0.0005894628
0.0005894628
0.0005894628
0.0005894628
0.0005894628
0.0005894628
0.0005894628
0.0005894628
0.0005894628
0.0005894628
0.0005894628
0.0005894628
0.0005894628
0.0005894628
0.0005894628
0.0005894628
0.0005894628
0.0005894628
0.0005894628
0.0005894628
0.0005894628
0.0005894628
0.0005894628
0.0005894628
0.0005894628
0.0005894628
0.0005894628
0.0005894628
0.0005894628
0.0005894628
0.0005894628
0.0005894628
0.0005894628
0.0005894628
0.0005894628
0.0005894628
0.0005894628
0.0005894628
0.0005894628
0.0005894628
0.0005894628
0.0005894628
0.0005894628
0.0005894628
0.0005894628
0.0005894628
0.0005894628
0.0005894628
0.0005894628
0.0005894628
0.0005894628
0.0005894628
0.0005894628
0.0005894628
0.0005894628
0.0005894628
0.0005894628
0.0005894628
0.0005894628
0.0005894628
0.0005894628
0.0005894628
0.0005894628
0.0005894628
0.0005894628
0.0005894628
0.0005894628
0.0005894628
0.0005894628
0.0005894628
0.0005894628
0.0005894628
0.0005894628
0.0005894628
0.0005894628
0.0005894628
0.0005894628
0.0005894628
0.0005894628
0.0005894628
0.0005894628
0.0005894628
0.0005894628
0.0005894628
0.0005894628
0.0005894628
0.0005894628
0.0005894628
0.0005894628
0.0005894628
0.0005894628
0.0005894628
0.0005894628
0.0005894628
0.0005894628
0.0005894628
0.0005894628
0.0005894628
0.0005894628
0.0005894628
0.0005894628
0.0005894628
0.0005894628
0.0005894628
0.0005894628
0.0005894628
0.0005894628
0.0005894628
0.0005894628
0.0005894628
0.0005894628
0.0005894628
0.0005894628
0.0005894628
0.0005894628
0.0005894628
0.0005894628
0.0005894628
0.0005894628
0.0005894628
0.0005894628
0.0005894628
0.0005894628
0.0005894628
0.0005894628
0.0005894628
0.0005894628
0.0005894628
0.0005894628
0.0005894628
0.0005894628
0.0005894628
0.0005894628
0.0005894628
0.0005894628
0.0005894628
0.0005894628
0.0005894628
0.0005894628
0.0005894628
0.0005894628
0.0005894628
0.0005894628
0.0005894628
0.0005894628
0.0005894628
0.0005894628
0.0005894628
0.0005894628
0.0005894628
0.0005894628
0.0005894628
0.0005894628
0.0005894628
0.0005894628
0.0005894628
0.0005894628
0.0005894628
0.0005894628
0.0005894628
0.0005894628
0.0005894628
0.0005894628
0.0005894628
0.0005894628
0.0005894628
0.0005894628
0.0005894628
0.0005894628
0.0005894628
0.0005894628
0.0005894628
0.0005894628
0.0005894628
0.0005894628
0.0005894628
0.0005894628
0.0005894628
0.0005894628
0.0005894628
0.0005894628
0.0005894628
0.0005894628
0.0005894628
0.0005894628
0.0005894628
0.0005894628
0.0005894628
0.0005894628
0.0005894628
0.0005894628
0.0005894628
0.0005894628
0.0005894628
0.0005894628
0.0005894628
0.0005894628
0.0005894628
0.0005894628
0.0005894628
0.0005894628
0.0005894628
0.0005894628
0.0005894628
0.0005894628
0.0005894628
0.0005894628
0.0005894628
0.0005894628
0.0005894628
0.0005894628
0.0005894628
0.0005894628
0.0005894628
0.0005894628
0.0005894628
0.0005894628
0.0005894628
0.0005894628
0.0005894628
0.0005894628
0.0005894628
0.0005894628
0.0005894628
0.0005894628
0.0005894628
0.0005894628
0.0005894628
0.0005894628
0.0005894628
0.0005894628
0.0005894628
0.0005894628
0.0005894628
0.0005894628
0.0005894628
0.0005894628
0.0005894628
0.0005894628
0.0005894628
0.0005894628
0.0005894628
0.0005894628
0.0005894628
0.0005894628
0.0005894628
0.0005894628
0.0005894628
0.0005894628
0.0005894628
0.0005894628
0.0005894628
0.0005894628
0.0005894628
0.0005894628
0.0005894628
0.0005894628
0.0005894628
0.0005894628
0.0005894628
0.0005894628
0.0005894628
0.0005894628
0.0005894628
0.0005894628
0.0005894628
0.0005894628
0.0005894628
0.0005894628
0.0005894628
0.0005894628
0.0005894628
0.0005894628
0.0005894628
0.0005894628
0.0005894628
0.0005894628
0.0005894628
0.0005894628
0.0005894628
0.0005894628
0.0005894628
0.0005894628
0.0005894628
0.0005894628
0.0005894628
0.0005894628
0.0005894628
0.0005894628
0.0005894628
0.0005894628
0.0005894628
0.0005894628
0.0005894628
0.0005894628
0.0005894628
0.0005894628
0.0005894628
0.0005894628
0.0005894628
0.0005894628
0.0005894628
0.0005894628
0.0005894628
0.0005894628
0.0005894628
0.0005894628
0.0005894628
0.0005894628
0.0005894628
0.0005894628
0.0005894628
0.0005894628
0.0005894628
0.0005894628
0.0005894628
0.0005894628
0.0005894628
0.0005894628
0.0005894628
0.0005894628
0.0005894628
0.0005894628
0.0005894628
0.0005894628
0.0005894628
0.0005894628
0.0005894628
0.0005894628
0.0005894628
0.0005894628
0.0005894628
0.0005894628
0.0005894628
0.0005894628
0.0005894628
0.0005894628
0.0005894628
0.0005894628
0.0005894628
0.0005894628
0.0005894628
0.0005894628
0.0005894628
0.0005894628
0.0005894628
0.0005894628


SCALARS b FLOAT 1
LOOKUP_TABLE default
0.02357851
0.02357851
0.02357851
0.02357851
0.02357851
0.02357851
0.02357851
0.02357851
0.02357851
0.02357851
0.02357851
0.02357851
0.02357851
0.02357851
0.02357851
0.02357851
0.02357851
0.02357851
0.02357851
0.02357851
0.02357851
0.02357851
0.02357851
0.02357851
0.02357851
0.02357851
0.02357851
0.02357851
0.02357851
0.02357851
0.02357851
0.02357851
0.02357851
0.02357851
0.02357851
0.02357851
0.02357851
0.02357851
0.02357851
0.02357851
0.02357851
0.02357851
0.02357851
0.02357851
0.02357851
0.02357851
0.02357851
0.02357851
0.02357851
0.02357851
0.02357851
0.02357851
0.02357851
0.02357851
0.02357851
0.02357851
0.02357851
0.02357851
0.02357851
0.02357851
0.02357851
0.02357851
0.02357851
0.02357851
0.02357851
0.02357851
0.02357851
0.02357851
0.02357851
0.02357851
0.02357851
0.02357851
0.02357851
0.02357851
0.02357851
0.02357851
0.02357851
0.02357851
0.02357851
0.02357851
0.02357851
0.02357851
0.02357851
0.02357851
0.02357851
0.02357851
0.02357851
0.02357851
0.02357851
0.02357851
0.02357851
0.02357851
0.02357851
0.02357851
0.02357851
0.02357851
0.02357851
0.02357851
0.02357851
0.02357851
0.02357851
0.02357851
0.02357851
0.02357851
0.02357851
0.02357851
0.02357851
0.02357851
0.02357851
0.02357851
0.02357851
0.02357851
0.02357851
0.02357851
0.02357851
0.02357851
0.02357851
0.02357851
0.02357851
0.02357851
0.02357851
0.02357851
0.02357851
0.02357851
0.02357851
0.02357851
0.02357851
0.02357851
0.02357851
0.02357851
0.02357851
0.02357851
0.02357851
0.02357851
0.02357851
0.02357851
0.02357851
0.02357851
0.02357851
0.02357851
0.02357851
0.02357851
0.02357851
0.02357851
0.02357851
0.02357851
0.02357851
0.02357851
0.02357851
0.02357851
0.02357851
0.02357851
0.02357851
0.02357851
0.02357851
0.02357851
0.02357851
0.02357851
0.02357851
0.02357851
0.02357851
0.02357851
0.02357851
0.02357851
0.02357851
0.02357851
0.02357851
0.02357851
0.02357851
0.02357851
0.02357851
0.02357851
0.02357851
0.02357851
0.02357851
0.02357851
0.02357851
0.02357851
0.02357851
0.02357851
0.02357851
0.02357851
0.02357851
0.02357851
0.02357851
0.02357851
0.02357851
0.02357851
0.02357851
0.02357851
0.02357851
0.02357851
0.02357851
0.02357851
0.02357851
0.02357851
0.02357851
0.02357851
0.02357851
0.02357851
0.02357851
0.02357851
0.02357851
0.02357851
0.02357851
0.02357851
0.02357851
0.02357851
0.02357851
0.02357851
0.02357851
0.02357851
0.02357851
0.02357851
0.02357851
0.02357851
0.02357851
0.02357851
0.02357851
0.02357851
0.02357851
0.02357851
0.02357851
0.02357851
0.02357851
0.02357851
0.02357851
0.02357851
0.02357851
0.02357851
0.02357851
0.02357851
0.02357851
0.02357851
0.02357851
0.02357851
0.02357851
0.02357851
0.02357851
0.02357851
0.02357851
0.02357851
0.02357851
0.02357851
0.02357851
0.02357851
0.02357851
0.02357851
0.02357851
0.02357851
0.02357851
0.02357851
0.02357851
0.02357851
0.02357851
0.02357851
0.02357851
0.02357851
0.02357851
0.02357851
0.02357851
0.02357851
0.02357851
0.02357851
0.02357851
0.02357851
0.02357851
0.02357851
0.02357851
0.02357851
0.02357851
0.02357851
0.02357851
0.02357851
0.02357851
0.02357851
0.02357851
0.02357851
0.02357851
0.02357851
0.02357851
0.02357851
0.02357851
0.02357851
0.02357851
0.02357851
0.02357851
0.02357851
0.02357851
0.02357851
0.02357851
0.02357851
0.02357851
0.02357851
0.02357851
0.02357851
0.02357851
0.02357851
0.02357851
0.02357851
0.02357851
0.02357851
0.02357851
0.02357851
0.02357851
0.02357851
0.02357851
0.02357851
0.02357851
0.02357851
0.02357851
0.02357851
0.02357851
0.02357851
0.02357851
0.02357851
0.02357851
0.02357851
0.02357851
0.02357851
0.02357851
0.02357851
0.02357851
0.02357851
0.02357851
0.02357851
0.02357851
0.02357851
0.02357851
0.02357851
0.02357851
0.02357851
0.02357851
0.02357851
0.02357851
0.02357851
0.02357851
0.02357851
0.02357851
0.02357851
0.02357851
0.02357851
0.02357851
0.02357851
0.02357851
0.02357851
0.02357851
0.02357851
0.02357851
0.02357851


VECTORS d1 FLOAT
0 -0.3884807 0.9214568
0.04258176 -0.3680464 0.9288319
0.08298093 -0.3457117 0.9346644
0.1211608 -0.3218157 0.9390179
0.1571113 -0.2966583 0.9419713
0.1908418 -0.2705023 0.9436143
0.2223758 -0.2435782 0.9440438
0.2517467 -0.2160866 0.9433611
0.2789941 -0.1882025 0.9416698
0.3041609 -0.1600781 0.9390746
0.3272909 -0.1318459 0.9356801
0.3484264 -0.103621 0.931591
0.3676055 -0.07550408 0.9269117
0.3848601 -0.04758328 0.9217475
0.4002122 -0.01993669 0.9162056
0.4136691 0.007365412 0.9103975
0.4252164 0.03425788 0.9044432
0.4348047 0.06067718 0.8984783
0.4423241 0.08655604 0.8926687
0.4475429 0.1118133 0.8872447
0.4499191 0.1363306 0.8826023
0.4477808 0.1599165 0.8797267
0.4398511 0.1829525 0.8792379
0.4287092 0.2058848 0.8796703
0.4153718 0.2287331 0.8804246
0.4002887 0.2514612 0.8812129
0.3837222 0.2740232 0.8818552
0.3658518 0.2963715 0.8822225
0.3468132 0.3184583 0.8822159
0.3267173 0.340237 0.8817565
0.3056595 0.3616626 0.8807795
0.2837252 0.3826911 0.8792312
0.2609932 0.4032806 0.8770674
0.237538 0.423391 0.8742515
0.2134305 0.4429842 0.8707539
0.1887397 0.4620243 0.8665511
0.1635324 0.4804776 0.8616254
0.1378743 0.498313 0.8559642
0.1118295 0.5155019 0.8495599
0.08546114 0.5320181 0.8424091
0.05883086 0.5478384 0.834513
0.03199918 0.5629423 0.8258765
0.00502517 0.577312 0.8165082
-0.02203359 0.5909327 0.8064199
-0.04912116 0.6037921 0.7956269
-0.07618338 0.6158812 0.784147
-0.103168 0.6271932 0.7720007
-0.1300248 0.6377246 0.7592107
-0.1567059 0.6474741 0.745802
-0.1831653 0.656443 0.7318012
-0.2093599 0.6646354 0.7172365
-0.2352487 0.6720574 0.7021374
-0.2607933 0.6787172 0.6865346
-0.2859581 0.6846256 0.6704594
-0.3107098 0.6897947 0.6539439
-0.3350181 0.6942389 0.6370206
-0.3588552 0.6979738 0.6197221
-0.3821958 0.7010169 0.6020811
-0.4050173 0.7033866 0.5841303
-0.4272998 0.7051028 0.5659019
-0.4490258 0.7061861 0.5474276
-0.4701803 0.7066582 0.5287388
-0.4907505 0.7065414 0.5098659
-0.510726 0.7058585 0.4908388
-0.5300988 0.7046329 0.4716862
-0.5488625 0.702888 0.452436
-0.5670132 0.7006478 0.4331151
-0.5845485 0.697936 0.4137493
-0.6014679 0.6947763 0.3943631
-0.6177726 0.6911924 0.3749801
-0.6334653 0.6872077 0.3556224
-0.64855 0.6828452 0.3363113
-0.6630322 0.6781277 0.3170665
-0.6769184 0.6730773 0.2979068
-0.6902164 0.6677157 0.2788497
-0.7029347 0.662064 0.2599115
-0.715083 0.6561428 0.2411075
-0.7266716 0.649972 0.2224517
-0.7377114 0.6435707 0.2039572
-0.7482142 0.6369575 0.1856359
-0.7581919 0.6301502 0.1674987
-0.7676572 0.6231658 0.1495556
-0.7766229 0.6160206 0.1318156
-0.7851024 0.6087304 0.114287
-0.793109 0.6013099 0.09697696
-0.8006564 0.5937732 0.079892
-0.8077582 0.5861339 0.06303788
-0.8144283 0.5784046 0.04641962
-0.8206804 0.5705973 0.03004154
-0.8265283 0.5627233 0.01390738
-0.8319858 0.5547934 -0.001979766
-0.8370664 0.5468176 -0.01761732
-0.8417837 0.5388051 -0.03300323
-0.846151 0.530765 -0.04813593
-0.8501814 0.5227052 -0.06301429
-0.853888 0.5146336 -0.07763759
-0.8572834 0.5065572 -0.09200548
-0.8603802 0.4984826 -0.106118
-0.8631907 0.4904158 -0.1199754
-0.8657269 0.4823626 -0.1335783
-0.8680006 0.4743281 -0.1469277
-0.8700233 0.466317 -0.1600245
-0.8718062 0.4583337 -0.1728702
-0.8733603 0.4503822 -0.1854663
-0.8746962 0.4424659 -0.1978144
-0.8758243 0.4345882 -0.2099164
-0.8767548 0.426752 -0.2217743
-0.8774974 0.4189598 -0.2333901
-0.8780618 0.411214 -0.2447662
-0.8784572 0.4035167 -0.2559048
-0.8786926 0.3958695 -0.2668082
-0.8787768 0.3882741 -0.277479
-0.8787182 0.3807317 -0.2879195
-0.8785251 0.3732435 -0.2981325
-0.8782054 0.3658103 -0.3081203
-0.8777668 0.3584329 -0.3178856
-0.8772168 0.3511118 -0.3274311
-0.8765627 0.3438473 -0.3367593
-0.8758114 0.3366398 -0.3458729
-0.8749696 0.3294893 -0.3547745
-0.874044 0.3223957 -0.3634667
-0.8730409 0.3153589 -0.3719521
-0.8719664 0.3083786 -0.3802332
-0.8708263 0.3014545 -0.3883126
-0.8696265 0.2945861 -0.3961929
-0.8683724 0.2877728 -0.4038765
-0.8670694 0.281014 -0.4113658
-0.8657226 0.274309 -0.4186633
-0.864337 0.267657 -0.4257714
-0.8629174 0.2610573 -0.4326924
-0.8614684 0.2545088 -0.4394285
-0.8599946 0.2480107 -0.445982
-0.8585002 0.241562 -0.4523551
-0.8569895 0.2351617 -0.4585499
-0.8554663 0.2288088 -0.4645686
-0.8539347 0.2225021 -0.470413
-0.8523983 0.2162405 -0.4760853
-0.8508607 0.2100229 -0.4815874
-0.8493255 0.2038482 -0.4869211
-0.8477959 0.1977151 -0.4920882
-0.8462752 0.1916226 -0.4970906
-0.8447665 0.1855693 -0.5019299
-0.8432728 0.1795541 -0.5066077
-0.8417968 0.1735758 -0.5111257
-0.8403415 0.1676332 -0.5154855
-0.8389094 0.161725 -0.5196884
-0.8375031 0.15585 -0.5237359
-0.836125 0.150007 -0.5276295
-0.8347774 0.1441947 -0.5313704
-0.8334627 0.138412 -0.5349599
-0.8321828 0.1326577 -0.5383992
-0.8309399 0.1269304 -0.5416895
-0.8297359 0.121229 -0.5448319
-0.8285727 0.1155524 -0.5478274
-0.8274521 0.1098992 -0.550677
-0.8263756 0.1042684 -0.5533818
-0.825345 0.09865876 -0.5559425
-0.8243616 0.09306906 -0.5583601
-0.823427 0.08749817 -0.5606354
-0.8225424 0.08194493 -0.562769
-0.8217092 0.07640819 -0.5647618
-0.8209283 0.07088682 -0.5666143
-0.820201 0.06537967 -0.5683271
-0.8195283 0.05988563 -0.569901
-0.818911 0.05440356 -0.5713362
-0.81835 0.04893237 -0.5726334
-0.817846 0.04347095 -0.5737929
-0.8173997 0.03801819 -0.5748151
-0.8170117 0.03257299 -0.5757003
-0.8166826 0.02713428 -0.5764489
-0.8164127 0.02170096 -0.577061
-0.8162024 0.01627196 -0.5775369
-0.816052 0.01084618 -0.5778767
-0.8159617 0.005422551 -0.5780806
-0.8159315 4.583888e-10 -0.5781485
-0.8159617 -0.00542255 -0.5780806
-0.816052 -0.01084618 -0.5778767
-0.8162024 -0.01627195 -0.5775369
-0.8164127 -0.02170096 -0.577061
-0.8166826 -0.02713428 -0.5764489
-0.8170117 -0.03257299 -0.5757003
-0.8173997 -0.03801818 -0.5748151
-0.817846 -0.04347095 -0.5737929
-0.81835 -0.04893237 -0.5726334
-0.818911 -0.05440356 -0.5713362
-0.8195283 -0.05988562 -0.569901
-0.820201 -0.06537967 -0.5683272
-0.8209283 -0.07088682 -0.5666143
-0.8217092 -0.07640819 -0.5647618
-0.8225424 -0.08194493 -0.562769
-0.823427 -0.08749817 -0.5606354
-0.8243616 -0.09306906 -0.5583601
-0.825345 -0.09865876 -0.5559425
-0.8263756 -0.1042684 -0.5533818
-0.8274521 -0.1098992 -0.550677
-0.8285727 -0.1155524 -0.5478274
-0.8297359 -0.121229 -0.5448319
-0.8309399 -0.1269304 -0.5416895
-0.8321828 -0.1326577 -0.5383992
-0.8334627 -0.138412 -0.5349599
-0.8347774 -0.1441947 -0.5313704
-0.836125 -0.150007 -0.5276295
-0.8375031 -0.15585 -0.5237359
-0.8389094 -0.161725 -0.5196884
-0.8403415 -0.1676332 -0.5154855
-0.8417968 -0.1735758 -0.5111257
-0.8432728 -0.1795541 -0.5066077
-0.8447665 -0.1855693 -0.5019299
-0.8462752 -0.1916226 -0.4970906
-0.8477959 -0.1977151 -0.4920882
-0.8493255 -0.2038482 -0.4869211
-0.8508607 -0.2100229 -0.4815874
-0.8523983 -0.2162405 -0.4760853
-0.8539347 -0.2225021 -0.470413