# vtk DataFile Version 2.0
Written badly by Kevin Korner
ASCII
DATASET POLYDATA
POINTS 350 FLOAT
0 0 0
0.00286533 0 0
0.005730534 2.598743e-05 6.19183e-06
0.008595366 7.796828e-05 1.849101e-05
0.01145958 0.000155946 3.681289e-05
0.01432292 0.0002599213 6.107264e-05
0.01718514 0.0003898926 9.118528e-05
0.02004599 0.0005458556 0.0001270657
0.02290524 0.0007278034 0.0001686286
0.02576263 0.0009357267 0.0002157887
0.02861791 0.001169614 0.0002684605
0.03147084 0.00142945 0.0003265584
0.03432118 0.001715218 0.0003899967
0.03716868 0.0020269 0.0004586897
0.04001309 0.002364472 0.0005325516
0.04285418 0.002727911 0.0006114965
0.0456917 0.00311719 0.0006954387
0.04852542 0.003532279 0.000784292
0.05135507 0.003973147 0.0008779707
0.05418044 0.00443976 0.0009763888
0.05700128 0.004932081 0.00107946
0.05981734 0.005450071 0.001187099
0.06262839 0.005993689 0.00129922
0.0654342 0.006562891 0.001415736
0.06823452 0.00715763 0.001536562
0.07102912 0.007777859 0.001661612
0.07381777 0.008423527 0.001790801
0.07660022 0.00909458 0.001924043
0.07937625 0.009790963 0.002061252
0.08214562 0.01051262 0.002202342
0.0849081 0.01125949 0.00234723
0.08766346 0.0120315 0.002495828
0.09041148 0.0128286 0.002648053
0.09315191 0.01365073 0.002803819
0.09588453 0.01449779 0.002963042
0.09860912 0.01536974 0.003125637
0.1013254 0.01626649 0.003291519
0.1040333 0.01718797 0.003460604
0.1067324 0.0181341 0.003632808
0.1094226 0.0191048 0.003808048
0.1121036 0.02009999 0.003986238
0.1147753 0.02111958 0.004167297
0.1174374 0.02216349 0.004351141
0.1200896 0.02323163 0.004537686
0.1227318 0.0243239 0.00472685
0.1253638 0.02544022 0.00491855
0.1279853 0.02658049 0.005112705
0.1305961 0.02774462 0.005309232
0.133196 0.02893249 0.005508049
0.1357848 0.03014402 0.005709075
0.1383623 0.0313791 0.005912229
0.1409282 0.03263762 0.006117429
0.1434824 0.03391949 0.006324597
0.1460247 0.03522458 0.00653365
0.1485548 0.03655278 0.00674451
0.1510726 0.037904 0.006957097
0.1535778 0.0392781 0.007171332
0.1560703 0.04067498 0.007387135
0.1585497 0.04209451 0.007604429
0.1610161 0.04353657 0.007823135
0.163469 0.04500105 0.008043175
0.1659084 0.04648781 0.008264473
0.1683341 0.04799674 0.008486951
0.1707458 0.0495277 0.008710533
0.1731433 0.05108057 0.008935143
0.1755265 0.0526552 0.009160704
0.1778952 0.05425148 0.009387142
0.1802492 0.05586927 0.009614382
0.1825883 0.05750842 0.009842349
0.1849123 0.0591688 0.01007097
0.187221 0.06085027 0.01030017
0.1895143 0.06255269 0.01052988
0.191792 0.06427592 0.01076002
0.1940538 0.0660198 0.01099052
0.1962996 0.0677842 0.01122131
0.1985293 0.06956896 0.01145233
0.2007426 0.07137394 0.01168349
0.2029394 0.07319898 0.01191473
0.2051194 0.07504393 0.01214598
0.2072827 0.07690864 0.01237716
0.2094289 0.07879295 0.01260822
0.2115578 0.08069669 0.01283908
0.2136694 0.08261973 0.01306968
0.2157635 0.08456188 0.01329995
0.2178399 0.08652299 0.01352981
0.2198984 0.0885029 0.01375922
0.2219389 0.09050145 0.01398809
0.2239612 0.09251845 0.01421637
0.2259651 0.09455375 0.01444399
0.2279506 0.09660718 0.01467088
0.2299174 0.09867857 0.014897
0.2318654 0.1007677 0.01512226
0.2337944 0.1028745 0.01534661
0.2357044 0.1049987 0.01556999
0.2375951 0.1071402 0.01579234
0.2394664 0.1092988 0.0160136
0.2413181 0.1114743 0.01623371
0.2431502 0.1136665 0.0164526
0.2449625 0.1158752 0.01667023
0.2467547 0.1181003 0.01688653
0.2485269 0.1203416 0.01710144
0.2502788 0.1225988 0.01731492
0.2520104 0.1248719 0.0175269
0.2537215 0.1271606 0.01773732
0.2554119 0.1294647 0.01794615
0.2570815 0.1317841 0.01815331
0.2587303 0.1341185 0.01835876
0.260358 0.1364678 0.01856244
0.2619646 0.1388318 0.01876431
0.2635499 0.1412102 0.01896431
0.2651138 0.1436029 0.01916239
0.2666562 0.1460097 0.01935851
0.268177 0.1484304 0.0195526
0.269676 0.1508647 0.01974463
0.2711532 0.1533126 0.01993454
0.2726084 0.1557737 0.0201223
0.2740416 0.1582479 0.02030785
0.2754525 0.1607351 0.02049114
0.2768412 0.1632348 0.02067214
0.2782074 0.1657471 0.02085079
0.2795512 0.1682717 0.02102706
0.2808723 0.1708083 0.0212009
0.2821708 0.1733568 0.02137226
0.2834464 0.1759169 0.02154112
0.2846992 0.1784885 0.02170742
0.2859289 0.1810714 0.02187114
0.2871356 0.1836652 0.02203221
0.2883191 0.1862699 0.02219062
0.2894793 0.1888852 0.02234632
0.2906161 0.1915109 0.02249928
0.2917296 0.1941468 0.02264945
0.2928195 0.1967926 0.02279681
0.2938858 0.1994482 0.02294132
0.2949284 0.2021134 0.02308294
0.2959472 0.2047879 0.02322164
0.2969422 0.2074714 0.02335739
0.2979133 0.2101639 0.02349015
0.2988605 0.2128651 0.02361991
0.2997835 0.2155747 0.02374662
0.3006824 0.2182926 0.02387025
0.3015572 0.2210184 0.02399078
0.3024076 0.2237521 0.02410819
0.3032338 0.2264934 0.02422243
0.3040356 0.229242 0.02433349
0.3048129 0.2319978 0.02444135
0.3055657 0.2347605 0.02454596
0.3062939 0.2375299 0.02464732
0.3069976 0.2403057 0.0247454
0.3076766 0.2430878 0.02484018
0.3083308 0.2458759 0.02493163
0.3089603 0.2486699 0.02501973
0.309565 0.2514694 0.02510447
0.3101449 0.2542743 0.02518582
0.3106998 0.2570843 0.02526377
0.3112298 0.2598992 0.0253383
0.3117348 0.2627187 0.02540938
0.3122148 0.2655428 0.02547702
0.3126697 0.268371 0.02554118
0.3130996 0.2712033 0.02560186
0.3135043 0.2740393 0.02565904
0.3138839 0.2768789 0.02571271
0.3142383 0.2797218 0.02576285
0.3145675 0.2825677 0.02580946
0.3148714 0.2854166 0.02585253
0.3151502 0.288268 0.02589204
0.3154036 0.2911219 0.02592799
0.3156318 0.293978 0.02596037
0.3158346 0.296836 0.02598916
0.3160121 0.2996957 0.02601437
0.3161643 0.3025569 0.02603599
0.3162912 0.3054193 0.02605402
0.3163926 0.3082828 0.02606844
0.3164688 0.3111471 0.02607926
0.3165195 0.314012 0.02608648
0.3165449 0.3168772 0.02609009
0.3165449 0.3197426 0.02609009
0.3165195 0.3226078 0.02608648
0.3164688 0.3254726 0.02607926
0.3163926 0.3283369 0.02606844
0.3162912 0.3312004 0.02605402
0.3161643 0.3340629 0.02603599
0.3160121 0.3369241 0.02601437
0.3158346 0.3397838 0.02598916
0.3156318 0.3426418 0.02596037
0.3154036 0.3454979 0.02592799
0.3151502 0.3483517 0.02589204
0.3148714 0.3512032 0.02585253
0.3145675 0.354052 0.02580946
0.3142383 0.356898 0.02576285
0.3138839 0.3597409 0.02571271
0.3135043 0.3625805 0.02565904
0.3130996 0.3654165 0.02560186
0.3126697 0.3682487 0.02554118
0.3122148 0.371077 0.02547702
0.3117348 0.373901 0.02540938
0.3112298 0.3767206 0.0253383
0.3106998 0.3795355 0.02526377
0.3101449 0.3823455 0.02518582
0.309565 0.3851504 0.02510447
0.3089603 0.3879499 0.02501973
0.3083308 0.3907438 0.02493163
0.3076766 0.393532 0.02484018
0.3069976 0.3963141 0.0247454
0.3062939 0.3990899 0.02464732
0.3055657 0.4018593 0.02454596
0.3048129 0.404622 0.02444135
0.3040356 0.4073778 0.02433349
0.3032338 0.4101264 0.02422243
0.3024076 0.4128676 0.02410819
0.3015572 0.4156013 0.02399078
0.3006824 0.4183272 0.02387025
0.2997835 0.4210451 0.02374662
0.2988605 0.4237547 0.02361991
0.2979133 0.4264558 0.02349015
0.2969422 0.4291483 0.02335739
0.2959472 0.4318319 0.02322164
0.2949284 0.4345064 0.02308294
0.2938858 0.4371715 0.02294132
0.2928195 0.4398271 0.02279681
0.2917296 0.442473 0.02264945
0.2906161 0.4451089 0.02249928
0.2894793 0.4477346 0.02234632
0.2883191 0.4503499 0.02219062
0.2871356 0.4529545 0.02203221
0.2859289 0.4555484 0.02187114
0.2846992 0.4581312 0.02170742
0.2834464 0.4607028 0.02154112
0.2821708 0.463263 0.02137226
0.2808723 0.4658115 0.0212009
0.2795512 0.4683481 0.02102706
0.2782074 0.4708726 0.02085079
0.2768412 0.4733849 0.02067214
0.2754525 0.4758847 0.02049114
0.2740416 0.4783718 0.02030785
0.2726084 0.4808461 0.0201223
0.2711532 0.4833072 0.01993454
0.269676 0.485755 0.01974463
0.268177 0.4881894 0.0195526
0.2666562 0.4906101 0.01935851
0.2651138 0.4930169 0.01916239
0.2635499 0.4954096 0.01896431
0.2619646 0.497788 0.01876431
0.260358 0.5001519 0.01856244
0.2587303 0.5025012 0.01835876
0.2570815 0.5048357 0.01815331
0.2554119 0.507155 0.01794615
0.2537215 0.5094592 0.01773732
0.2520104 0.5117479 0.0175269
0.2502788 0.5140209 0.01731492
0.2485269 0.5162782 0.01710144
0.2467547 0.5185195 0.01688653
0.2449625 0.5207446 0.01667023
0.2431502 0.5229533 0.0164526
0.2413181 0.5251455 0.01623371
0.2394664 0.527321 0.0160136
0.2375951 0.5294795 0.01579234
0.2357044 0.531621 0.01556999
0.2337944 0.5337452 0.01534661
0.2318654 0.535852 0.01512226
0.2299174 0.5379412 0.014897
0.2279506 0.5400126 0.01467088
0.2259651 0.542066 0.01444399
0.2239612 0.5441013 0.01421637
0.2219389 0.5461183 0.01398809
0.2198984 0.5481169 0.01375922
0.2178399 0.5500968 0.01352981
0.2157635 0.5520579 0.01329995
0.2136694 0.554 0.01306968
0.2115578 0.5559231 0.01283908
0.2094289 0.5578268 0.01260822
0.2072827 0.5597111 0.01237716
0.2051194 0.5615758 0.01214598
0.2029394 0.5634208 0.01191473
0.2007426 0.5652458 0.01168349
0.1985293 0.5670508 0.01145233
0.1962996 0.5688356 0.01122131
0.1940538 0.5706 0.01099052
0.191792 0.5723439 0.01076002
0.1895143 0.5740671 0.01052988
0.187221 0.5757695 0.01030017
0.1849123 0.577451 0.01007097
0.1825883 0.5791114 0.009842349
0.1802492 0.5807505 0.009614382
0.1778952 0.5823683 0.009387142
0.1755265 0.5839646 0.009160704
0.1731433 0.5855392 0.008935143
0.1707458 0.5870921 0.008710533
0.1683341 0.588623 0.008486951
0.1659084 0.590132 0.008264473
0.163469 0.5916187 0.008043175
0.1610161 0.5930832 0.007823135
0.1585497 0.5945253 0.007604429
0.1560703 0.5959448 0.007387135
0.1535778 0.5973417 0.007171332
0.1510726 0.5987158 0.006957097
0.1485548 0.600067 0.00674451
0.1460247 0.6013952 0.00653365
0.1434824 0.6027003 0.006324597
0.1409282 0.6039821 0.006117429
0.1383623 0.6052407 0.005912229
0.1357848 0.6064758 0.005709075
0.133196 0.6076873 0.005508049
0.1305961 0.6088752 0.005309232
0.1279853 0.6100393 0.005112705
0.1253638 0.6111795 0.00491855
0.1227318 0.6122959 0.00472685
0.1200896 0.6133881 0.004537686
0.1174374 0.6144563 0.004351141
0.1147753 0.6155002 0.004167297
0.1121036 0.6165198 0.003986238
0.1094226 0.617515 0.003808048
0.1067324 0.6184857 0.003632808
0.1040333 0.6194318 0.003460604
0.1013254 0.6203533 0.003291519
0.09860912 0.62125 0.003125637
0.09588453 0.622122 0.002963042
0.09315191 0.622969 0.002803819
0.09041148 0.6237912 0.002648053
0.08766346 0.6245883 0.002495828
0.0849081 0.6253603 0.00234723
0.08214562 0.6261072 0.002202342
0.07937625 0.6268288 0.002061252
0.07660022 0.6275252 0.001924043
0.07381777 0.6281962 0.001790801
0.07102912 0.6288419 0.001661612
0.06823452 0.6294621 0.001536562
0.0654342 0.6300569 0.001415736
0.06262839 0.6306261 0.00129922
0.05981734 0.6311697 0.001187099
0.05700128 0.6316877 0.00107946
0.05418044 0.63218 0.0009763888
0.05135507 0.6326466 0.0008779707
0.04852542 0.6330875 0.000784292
0.0456917 0.6335026 0.0006954387
0.04285418 0.6338919 0.0006114965
0.04001309 0.6342553 0.0005325516
0.03716868 0.6345929 0.0004586897
0.03432118 0.6349046 0.0003899967
0.03147084 0.6351903 0.0003265584
0.02861791 0.6354502 0.0002684605
0.02576263 0.635684 0.0002157887
0.02290524 0.635892 0.0001686286
0.02004599 0.6360739 0.0001270657
0.01718514 0.6362299 9.118528e-05
0.01432292 0.6363599 6.107264e-05
0.01145958 0.6364638 3.681289e-05
0.008595366 0.6365418 1.849101e-05
0.005730534 0.6365938 6.19183e-06
0.00286533 0.6366198 0
0 0.6366198 0

LINES 349 1047
2 0 1
2 1 2
2 2 3
2 3 4
2 4 5
2 5 6
2 6 7
2 7 8
2 8 9
2 9 10
2 10 11
2 11 12
2 12 13
2 13 14
2 14 15
2 15 16
2 16 17
2 17 18
2 18 19
2 19 20
2 20 21
2 21 22
2 22 23
2 23 24
2 24 25
2 25 26
2 26 27
2 27 28
2 28 29
2 29 30
2 30 31
2 31 32
2 32 33
2 33 34
2 34 35
2 35 36
2 36 37
2 37 38
2 38 39
2 39 40
2 40 41
2 41 42
2 42 43
2 43 44
2 44 45
2 45 46
2 46 47
2 47 48
2 48 49
2 49 50
2 50 51
2 51 52
2 52 53
2 53 54
2 54 55
2 55 56
2 56 57
2 57 58
2 58 59
2 59 60
2 60 61
2 61 62
2 62 63
2 63 64
2 64 65
2 65 66
2 66 67
2 67 68
2 68 69
2 69 70
2 70 71
2 71 72
2 72 73
2 73 74
2 74 75
2 75 76
2 76 77
2 77 78
2 78 79
2 79 80
2 80 81
2 81 82
2 82 83
2 83 84
2 84 85
2 85 86
2 86 87
2 87 88
2 88 89
2 89 90
2 90 91
2 91 92
2 92 93
2 93 94
2 94 95
2 95 96
2 96 97
2 97 98
2 98 99
2 99 100
2 100 101
2 101 102
2 102 103
2 103 104
2 104 105
2 105 106
2 106 107
2 107 108
2 108 109
2 109 110
2 110 111
2 111 112
2 112 113
2 113 114
2 114 115
2 115 116
2 116 117
2 117 118
2 118 119
2 119 120
2 120 121
2 121 122
2 122 123
2 123 124
2 124 125
2 125 126
2 126 127
2 127 128
2 128 129
2 129 130
2 130 131
2 131 132
2 132 133
2 133 134
2 134 135
2 135 136
2 136 137
2 137 138
2 138 139
2 139 140
2 140 141
2 141 142
2 142 143
2 143 144
2 144 145
2 145 146
2 146 147
2 147 148
2 148 149
2 149 150
2 150 151
2 151 152
2 152 153
2 153 154
2 154 155
2 155 156
2 156 157
2 157 158
2 158 159
2 159 160
2 160 161
2 161 162
2 162 163
2 163 164
2 164 165
2 165 166
2 166 167
2 167 168
2 168 169
2 169 170
2 170 171
2 171 172
2 172 173
2 173 174
2 174 175
2 175 176
2 176 177
2 177 178
2 178 179
2 179 180
2 180 181
2 181 182
2 182 183
2 183 184
2 184 185
2 185 186
2 186 187
2 187 188
2 188 189
2 189 190
2 190 191
2 191 192
2 192 193
2 193 194
2 194 195
2 195 196
2 196 197
2 197 198
2 198 199
2 199 200
2 200 201
2 201 202
2 202 203
2 203 204
2 204 205
2 205 206
2 206 207
2 207 208
2 208 209
2 209 210
2 210 211
2 211 212
2 212 213
2 213 214
2 214 215
2 215 216
2 216 217
2 217 218
2 218 219
2 219 220
2 220 221
2 221 222
2 222 223
2 223 224
2 224 225
2 225 226
2 226 227
2 227 228
2 228 229
2 229 230
2 230 231
2 231 232
2 232 233
2 233 234
2 234 235
2 235 236
2 236 237
2 237 238
2 238 239
2 239 240
2 240 241
2 241 242
2 242 243
2 243 244
2 244 245
2 245 246
2 246 247
2 247 248
2 248 249
2 249 250
2 250 251
2 251 252
2 252 253
2 253 254
2 254 255
2 255 256
2 256 257
2 257 258
2 258 259
2 259 260
2 260 261
2 261 262
2 262 263
2 263 264
2 264 265
2 265 266
2 266 267
2 267 268
2 268 269
2 269 270
2 270 271
2 271 272
2 272 273
2 273 274
2 274 275
2 275 276
2 276 277
2 277 278
2 278 279
2 279 280
2 280 281
2 281 282
2 282 283
2 283 284
2 284 285
2 285 286
2 286 287
2 287 288
2 288 289
2 289 290
2 290 291
2 291 292
2 292 293
2 293 294
2 294 295
2 295 296
2 296 297
2 297 298
2 298 299
2 299 300
2 300 301
2 301 302
2 302 303
2 303 304
2 304 305
2 305 306
2 306 307
2 307 308
2 308 309
2 309 310
2 310 311
2 311 312
2 312 313
2 313 314
2 314 315
2 315 316
2 316 317
2 317 318
2 318 319
2 319 320
2 320 321
2 321 322
2 322 323
2 323 324
2 324 325
2 325 326
2 326 327
2 327 328
2 328 329
2 329 330
2 330 331
2 331 332
2 332 333
2 333 334
2 334 335
2 335 336
2 336 337
2 337 338
2 338 339
2 339 340
2 340 341
2 341 342
2 342 343
2 343 344
2 344 345
2 345 346
2 346 347
2 347 348
2 348 349


POINT_DATA 350
SCALARS a FLOAT 1
LOOKUP_TABLE default
0.0005894628
0.0005894628
0.0005894628
0.0005894628
0.0005894628
0.0005894628
0.0005894628
0.0005894628
0.0005894628
0.0005894628
0.0005894628
0.0005894628
0.0005894628
0.0005894628
0.0005894628
0.0005894628
0.0005894628
0.0005894628
0.0005894628
0.0005894628
0.0005894628
0.0005894628
0.0005894628
0.0005894628
0.0005894628
0.0005894628
0.0005894628
0.0005894628
0.0005894628
0.0005894628
0.0005894628
0.0005894628
0.0005894628
0.0005894628
0.0005894628
0.0005894628
0.0005894628
0.0005894628
0.0005894628
0.0005894628
0.0005894628
0.0005894628
0.0005894628
0.0005894628
0.0005894628
0.0005894628
0.0005894628
0.0005894628
0.0005894628
0.0005894628
0.0005894628
0.0005894628
0.0005894628
0.0005894628
0.0005894628
0.0005894628
0.0005894628
0.0005894628
0.0005894628
0.0005894628
0.0005894628
0.0005894628
0.0005894628
0.0005894628
0.0005894628
0.0005894628
0.0005894628
0.0005894628
0.0005894628
0.0005894628
0.0005894628
0.0005894628
0.0005894628
0.0005894628
0.0005894628
0.0005894628
0.0005894628
0.0005894628
0.0005894628
0.0005894628
0.0005894628
0.0005894628
0.0005894628
0.0005894628
0.0005894628
0.0005894628
0.0005894628
0.0005894628
0.0005894628
0.0005894628
0.0005894628
0.0005894628
0.0005894628
0.0005894628
0.0005894628
0.0005894628
0.0005894628
0.0005894628
0.0005894628
0.0005894628
0.0005894628
0.0005894628
0.0005894628
0.0005894628
0.0005894628
0.0005894628
0.0005894628
0.0005894628
0.0005894628
0.0005894628
0.0005894628
0.0005894628
0.0005894628
0.0005894628
0.0005894628
0.0005894628
0.0005894628
0.0005894628
0.0005894628
0.0005894628
0.0005894628
0.0005894628
0.0005894628
0.0005894628
0.0005894628
0.0005894628
0.0005894628
0.0005894628
0.0005894628
0.0005894628
0.0005894628
0.0005894628
0.0005894628
0.0005894628
0.0005894628
0.0005894628
0.0005894628
0.0005894628
0.0005894628
0.0005894628
0.0005894628
0.0005894628
0.0005894628
0.0005894628
0.0005894628
0.0005894628
0.0005894628
0.0005894628
0.0005894628
0.0005894628
0.0005894628
0.0005894628
0.0005894628
0.0005894628
0.0005894628
0.0005894628
0.0005894628
0.0005894628
0.0005894628
0.0005894628
0.0005894628
0.0005894628
0.0005894628
0.0005894628
0.0005894628
0.0005894628
0.0005894628
0.0005894628
0.0005894628
0.0005894628
0.0005894628
0.0005894628
0.0005894628
0.0005894628
0.0005894628
0.0005894628
0.0005894628
0.0005894628
0.0005894628
0.0005894628
0.0005894628
0.0005894628
0.0005894628
0.0005894628
0.0005894628
0.0005894628
0.0005894628
0.0005894628
0.0005894628
0.0005894628
0.0005894628
0.0005894628
0.0005894628
0.0005894628
0.0005894628
0.0005894628
0.0005894628
0.0005894628
0.0005894628
0.0005894628
0.0005894628
0.0005894628
0.0005894628
0.0005894628
0.0005894628
0.0005894628
0.0005894628
0.0005894628
0.0005894628
0.0005894628
0.0005894628
0.0005894628
0.0005894628
0.0005894628
0.0005894628
0.0005894628
0.0005894628
0.0005894628
0.0005894628
0.0005894628
0.0005894628
0.0005894628
0.0005894628
0.0005894628
0.0005894628
0.0005894628
0.0005894628
0.0005894628
0.0005894628
0.0005894628
0.0005894628
0.0005894628
0.0005894628
0.0005894628
0.0005894628
0.0005894628
0.0005894628
0.0005894628
0.0005894628
0.0005894628
0.0005894628
0.0005894628
0.0005894628
0.0005894628
0.0005894628
0.0005894628
0.0005894628
0.0005894628
0.0005894628
0.0005894628
0.0005894628
0.0005894628
0.0005894628
0.0005894628
0.0005894628
0.0005894628
0.0005894628
0.0005894628
0.0005894628
0.0005894628
0.0005894628
0.0005894628
0.0005894628
0.0005894628
0.0005894628
0.0005894628
0.0005894628
0.0005894628
0.0005894628
0.0005894628
0.0005894628
0.0005894628
0.0005894628
0.0005894628
0.0005894628
0.0005894628
0.0005894628
0.0005894628
0.0005894628
0.0005894628
0.0005894628
0.0005894628
0.0005894628
0.0005894628
0.0005894628
0.0005894628
0.0005894628
0.0005894628
0.0005894628
0.0005894628
0.0005894628
0.0005894628
0.0005894628
0.0005894628
0.0005894628
0.0005894628
0.0005894628
0.0005894628
0.0005894628
0.0005894628
0.0005894628
0.0005894628
0.0005894628
0.0005894628
0.0005894628
0.0005894628
0.0005894628
0.0005894628
0.0005894628
0.0005894628
0.0005894628
0.0005894628
0.0005894628
0.0005894628
0.0005894628
0.0005894628
0.0005894628
0.0005894628
0.0005894628
0.0005894628
0.0005894628
0.0005894628
0.0005894628
0.0005894628
0.0005894628
0.0005894628
0.0005894628
0.0005894628
0.0005894628
0.0005894628
0.0005894628
0.0005894628
0.0005894628
0.0005894628
0.0005894628
0.0005894628
0.0005894628
0.0005894628
0.0005894628
0.0005894628
0.0005894628
0.0005894628
0.0005894628
0.0005894628
0.0005894628
0.0005894628
0.0005894628
0.0005894628
0.0005894628
0.0005894628


SCALARS b FLOAT 1
LOOKUP_TABLE default
0.02357851
0.02357851
0.02357851
0.02357851
0.02357851
0.02357851
0.02357851
0.02357851
0.02357851
0.02357851
0.02357851
0.02357851
0.02357851
0.02357851
0.02357851
0.02357851
0.02357851
0.02357851
0.02357851
0.02357851
0.02357851
0.02357851
0.02357851
0.02357851
0.02357851
0.02357851
0.02357851
0.02357851
0.02357851
0.02357851
0.02357851
0.02357851
0.02357851
0.02357851
0.02357851
0.02357851
0.02357851
0.02357851
0.02357851
0.02357851
0.02357851
0.02357851
0.02357851
0.02357851
0.02357851
0.02357851
0.02357851
0.02357851
0.02357851
0.02357851
0.02357851
0.02357851
0.02357851
0.02357851
0.02357851
0.02357851
0.02357851
0.02357851
0.02357851
0.02357851
0.02357851
0.02357851
0.02357851
0.02357851
0.02357851
0.02357851
0.02357851
0.02357851
0.02357851
0.02357851
0.02357851
0.02357851
0.02357851
0.02357851
0.02357851
0.02357851
0.02357851
0.02357851
0.02357851
0.02357851
0.02357851
0.02357851
0.02357851
0.02357851
0.02357851
0.02357851
0.02357851
0.02357851
0.02357851
0.02357851
0.02357851
0.02357851
0.02357851
0.02357851
0.02357851
0.02357851
0.02357851
0.02357851
0.02357851
0.02357851
0.02357851
0.02357851
0.02357851
0.02357851
0.02357851
0.02357851
0.02357851
0.02357851
0.02357851
0.02357851
0.02357851
0.02357851
0.02357851
0.02357851
0.02357851
0.02357851
0.02357851
0.02357851
0.02357851
0.02357851
0.02357851
0.02357851
0.02357851
0.02357851
0.02357851
0.02357851
0.02357851
0.02357851
0.02357851
0.02357851
0.02357851
0.02357851
0.02357851
0.02357851
0.02357851
0.02357851
0.02357851
0.02357851
0.02357851
0.02357851
0.02357851
0.02357851
0.02357851
0.02357851
0.02357851
0.02357851
0.02357851
0.02357851
0.02357851
0.02357851
0.02357851
0.02357851
0.02357851
0.02357851
0.02357851
0.02357851
0.02357851
0.02357851
0.02357851
0.02357851
0.02357851
0.02357851
0.02357851
0.02357851
0.02357851
0.02357851
0.02357851
0.02357851
0.02357851
0.02357851
0.02357851
0.02357851
0.02357851
0.02357851
0.02357851
0.02357851
0.02357851
0.02357851
0.02357851
0.02357851
0.02357851
0.02357851
0.02357851
0.02357851
0.02357851
0.02357851
0.02357851
0.02357851
0.02357851
0.02357851
0.02357851
0.02357851
0.02357851
0.02357851
0.02357851
0.02357851
0.02357851
0.02357851
0.02357851
0.02357851
0.02357851
0.02357851
0.02357851
0.02357851
0.02357851
0.02357851
0.02357851
0.02357851
0.02357851
0.02357851
0.02357851
0.02357851
0.02357851
0.02357851
0.02357851
0.02357851
0.02357851
0.02357851
0.02357851
0.02357851
0.02357851
0.02357851
0.02357851
0.02357851
0.02357851
0.02357851
0.02357851
0.02357851
0.02357851
0.02357851
0.02357851
0.02357851
0.02357851
0.02357851
0.02357851
0.02357851
0.02357851
0.02357851
0.02357851
0.02357851
0.02357851
0.02357851
0.02357851
0.02357851
0.02357851
0.02357851
0.02357851
0.02357851
0.02357851
0.02357851
0.02357851
0.02357851
0.02357851
0.02357851
0.02357851
0.02357851
0.02357851
0.02357851
0.02357851
0.02357851
0.02357851
0.02357851
0.02357851
0.02357851
0.02357851
0.02357851
0.02357851
0.02357851
0.02357851
0.02357851
0.02357851
0.02357851
0.02357851
0.02357851
0.02357851
0.02357851
0.02357851
0.02357851
0.02357851
0.02357851
0.02357851
0.02357851
0.02357851
0.02357851
0.02357851
0.02357851
0.02357851
0.02357851
0.02357851
0.02357851
0.02357851
0.02357851
0.02357851
0.02357851
0.02357851
0.02357851
0.02357851
0.02357851
0.02357851
0.02357851
0.02357851
0.02357851
0.02357851
0.02357851
0.02357851
0.02357851
0.02357851
0.02357851
0.02357851
0.02357851
0.02357851
0.02357851
0.02357851
0.02357851
0.02357851
0.02357851
0.02357851
0.02357851
0.02357851
0.02357851
0.02357851
0.02357851
0.02357851
0.02357851
0.02357851
0.02357851
0.02357851
0.02357851
0.02357851
0.02357851
0.02357851
0.02357851
0.02357851
0.02357851
0.02357851
0.02357851
0.02357851
0.02357851
0.02357851
0.02357851
0.02357851
0.02357851
0.02357851
0.02357851
0.02357851
0.02357851
0.02357851
0.02357851
0.02357851
0.02357851


VECTORS d1 FLOAT
0 0.9723699 0.2334454
-0.009323486 0.9730547 0.2303859
-0.01864213 0.9736424 0.2273167
-0.02795505 0.9741333 0.2242383
-0.03726135 0.9745275 0.221151
-0.04656016 0.9748251 0.2180554
-0.0558506 0.9750264 0.2149519
-0.0651318 0.9751314 0.2118408
-0.0744029 0.9751406 0.2087225
-0.08366303 0.9750539 0.2055976
-0.09291133 0.9748717 0.2024665
-0.102147 0.9745942 0.1993295
-0.1113691 0.9742215 0.196187
-0.1205768 0.973754 0.1930396
-0.1297694 0.973192 0.1898876
-0.1389459 0.9725356 0.1867314
-0.1481056 0.9717851 0.1835714
-0.1572476 0.9709408 0.1804082
-0.1663712 0.970003 0.177242
-0.1754754 0.9689721 0.1740733
-0.1845596 0.9678482 0.1709025
-0.1936229 0.9666317 0.16773
-0.2026644 0.9653229 0.1645562
-0.2116836 0.9639222 0.1613816
-0.2206794 0.9624299 0.1582065
-0.2296513 0.9608463 0.1550313
-0.2385983 0.9591717 0.1518565
-0.2475198 0.9574066 0.1486825
-0.2564151 0.9555513 0.1455095
-0.2652832 0.9536061 0.1423381
-0.2741235 0.9515715 0.1391687
-0.2829353 0.9494478 0.1360016
-0.2917179 0.9472354 0.1328372
-0.3004704 0.9449348 0.1296759
-0.3091922 0.9425462 0.1265181
-0.3178825 0.9400702 0.1233642
-0.3265407 0.9375071 0.1202146
-0.3351661 0.9348574 0.1170697
-0.3437579 0.9321215 0.1139297
-0.3523155 0.9292998 0.1107953
-0.3608382 0.9263929 0.1076665
-0.3693253 0.923401 0.104544
-0.3777761 0.9203247 0.101428
-0.3861899 0.9171645 0.09831894
-0.3945662 0.9139208 0.09521715
-0.4029042 0.9105941 0.092123
-0.4112034 0.9071848 0.08903686
-0.419463 0.9036934 0.08595909
-0.4276824 0.9001205 0.08289006
-0.4358611 0.8964665 0.07983012
-0.4439983 0.892732 0.07677962
-0.4520935 0.8889173 0.07373892
-0.4601461 0.8850231 0.07070836
-0.4681554 0.8810498 0.0676883
-0.4761209 0.876998 0.06467908
-0.4840419 0.8728682 0.06168104
-0.4919179 0.8686609 0.05869453
-0.4997484 0.8643766 0.05571987
-0.5075326 0.8600159 0.05275741
-0.5152702 0.8555793 0.04980749
-0.5229604 0.8510673 0.04687042
-0.5306028 0.8464806 0.04394653
-0.5381968 0.8418196 0.04103616
-0.5457419 0.8370849 0.03813963
-0.5532375 0.8322771 0.03525725
-0.5606831 0.8273967 0.03238934
-0.5680782 0.8224444 0.02953621
-0.5754223 0.8174206 0.02669819
-0.5827148 0.8123259 0.02387558
-0.5899552 0.807161 0.02106868
-0.5971432 0.8019264 0.01827779
-0.604278 0.7966227 0.01550323
-0.6113594 0.7912504 0.01274529
-0.6183867 0.7858103 0.01000426
-0.6253596 0.7803027 0.007280441
-0.6322775 0.7747285 0.004574119
-0.63914 0.7690881 0.001885582
-0.6459466 0.7633822 -0.0007848838
-0.652697 0.7576113 -0.003436997
-0.6593905 0.7517761 -0.006070479
-0.6660269 0.7458772 -0.008685053
-0.6726056 0.7399152 -0.01128044
-0.6791262 0.7338907 -0.01385638
-0.6855884 0.7278043 -0.0164126
-0.6919917 0.7216567 -0.01894883
-0.6983356 0.7154485 -0.02146482
-0.7046199 0.7091803 -0.02396029
-0.710844 0.7028527 -0.02643501
-0.7170077 0.6964664 -0.0288887
-0.7231104 0.690022 -0.03132113
-0.7291519 0.6835201 -0.03373204
-0.7351317 0.6769614 -0.03612118
-0.7410495 0.6703464 -0.03848832
-0.7469049 0.663676 -0.04083322
-0.7526975 0.6569506 -0.04315564
-0.7584271 0.6501709 -0.04545535
-0.7640932 0.6433376 -0.04773211
-0.7696955 0.6364513 -0.0499857
-0.7752336 0.6295127 -0.05221589
-0.7807074 0.6225225 -0.05442246
-0.7861163 0.6154812 -0.05660519
-0.7914601 0.6083895 -0.05876387
-0.7967384 0.6012481 -0.06089828
-0.801951 0.5940576 -0.06300822
-0.8070976 0.5868188 -0.06509347
-0.8121778 0.5795322 -0.06715383
-0.8171914 0.5721985 -0.0691891
-0.822138 0.5648184 -0.07119907
-0.8270174 0.5573925 -0.07318357
-0.8318293 0.5499215 -0.07514238
-0.8365734 0.5424061 -0.07707533
-0.8412494 0.534847 -0.07898222
-0.8458571 0.5272447 -0.08086287
-0.8503962 0.5196 -0.0827171
-0.8548665 0.5119136 -0.08454473
-0.8592677 0.504186 -0.08634559
-0.8635995 0.4964181 -0.08811951
-0.8678617 0.4886103 -0.0898663
-0.8720541 0.4807636 -0.09158582
-0.8761765 0.4728784 -0.09327789
-0.8802286 0.4649555 -0.09494236
-0.8842102 0.4569955 -0.09657906
-0.888121 0.4489992 -0.09818785
-0.8919609 0.4409671 -0.09976856
-0.8957296 0.4329001 -0.1013211
-0.899427 0.4247987 -0.1028452
-0.9030528 0.4166636 -0.1043408
-0.9066069 0.4084955 -0.1058078
-0.910089 0.4002952 -0.107246
-0.913499 0.3920632 -0.1086552
-0.9168367 0.3838003 -0.1100355
-0.9201019 0.3755071 -0.1113865
-0.9232944 0.3671843 -0.1127082
-0.9264141 0.3588327 -0.1140006
-0.9294607 0.3504528 -0.1152633
-0.9324342 0.3420454 -0.1164964
-0.9353344 0.3336111 -0.1176997
-0.9381611 0.3251507 -0.1188732
-0.9409141 0.3166648 -0.1200166
-0.9435935 0.3081541 -0.1211299
-0.9461988 0.2996193 -0.1222131
-0.9487302 0.291061 -0.1232659
-0.9511874 0.2824801 -0.1242883
-0.9535703 0.273877 -0.1252803
-0.9558787 0.2652527 -0.1262416
-0.9581126 0.2566076 -0.1271723
-0.9602718 0.2479425 -0.1280722
-0.9623563 0.2392582 -0.1289413
-0.9643659 0.2305552 -0.1297794
-0.9663005 0.2218343 -0.1305866
-0.96816 0.2130962 -0.1313627
-0.9699444 0.2043415 -0.1321077
-0.9716535 0.1955709 -0.1328214
-0.9732872 0.1867852 -0.1335039
-0.9748455 0.1779849 -0.1341551
-0.9763283 0.1691709 -0.1347749
-0.9777355 0.1603438 -0.1353632
-0.979067 0.1515042 -0.13592
-0.9803228 0.142653 -0.1364453
-0.9815028 0.1337906 -0.1369389
-0.982607 0.124918 -0.137401
-0.9836352 0.1160356 -0.1378313
-0.9845875 0.1071443 -0.1382299
-0.9854638 0.09824474 -0.1385968
-0.986264 0.08933756 -0.1389319
-0.9869882 0.08042348 -0.1392351
-0.9876362 0.07150318 -0.1395066
-0.988208 0.06257737 -0.1397461
-0.9887037 0.05364672 -0.1399537
-0.9891231 0.04471193 -0.1401295
-0.9894664 0.03577368 -0.1402733
-0.9897333 0.02683268 -0.1403851
-0.989924 0.0178896 -0.140465
-0.9900384 0.008945146 -0.140513
-0.9900766 -1.584885e-12 -0.1405289
-0.9900384 -0.008945146 -0.140513
-0.989924 -0.0178896 -0.140465
-0.9897333 -0.02683268 -0.1403851
-0.9894664 -0.03577368 -0.1402733
-0.9891231 -0.04471193 -0.1401295
-0.9887037 -0.05364672 -0.1399537
-0.988208 -0.06257737 -0.1397461
-0.9876362 -0.07150318 -0.1395066
-0.9869882 -0.08042348 -0.1392351
-0.986264 -0.08933756 -0.1389319
-0.9854638 -0.09824474 -0.1385968
-0.9845875 -0.1071443 -0.1382299
-0.9836352 -0.1160356 -0.1378313
-0.982607 -0.124918 -0.137401
-0.9815028 -0.1337906 -0.1369389
-0.9803228 -0.142653 -0.1364453
-0.979067 -0.1515042 -0.13592
-0.9777355 -0.1603438 -0.1353632
-0.9763283 -0.1691709 -0.1347749
-0.9748455 -0.1779849 -0.1341551
-0.9732872 -0.1867852 -0.1335039
-0.9716535 -0.1955709 -0.1328214
-0.9699444 -0.2043415 -0.1321077
-0.96816 -0.2130962 -0.1313627
-0.9663005 -0.2218343 -0.1305866
-0.9643659 -0.2305552 -0.1297794
-0.9623563 -0.2392582 -0.1289413
-0.9602718 -0.2479425 -0.1280722
-0.9581126 -0.2566076 -0.1271723
-0.9558787 -0.2652527 -0.1262416
-0.9535703 -0.273877 -0.1252803
-0.9511874 -0.2824801 -0.1242883
-0.9487302 -0.291061 -0.1232659
-0.9461988 -0.2996193 -0.1222131
-0.9435935 -0.3081541 -0.1211299
-0.9409141 -0.3166648 -0.1200166
-0.9381611 -0.3251507 -0.1188732
-0.9353344 -0.3336111 -0.1176997
-0.9324342 -0.3420454 -0.1164964
-0.9294607 -0.3504528 -0.1152633
-0.9264141 -0.3588327 -0.1140006
-0.9232944 -0.3671843 -0.1127082
-0.9201019 -0.3755071 -0.1113865
-0.9168367 -0.3838003 -0.1100355
-0.913499 -0.3920632 -0.1086552