# vtk DataFile Version 2.0
Written badly by Kevin Korner
ASCII
DATASET POLYDATA
POINTS 350 FLOAT
0 0 0
0.00286533 0 0
0.005730294 6.985755e-06 -4.5214e-05
0.008594307 1.926303e-05 -0.0001311729
0.011457 3.534101e-05 -0.0002531042
0.01431819 5.393871e-05 -0.0004058033
0.01717794 7.399843e-05 -0.0005834146
0.02003651 9.471386e-05 -0.0007790469
0.02289441 0.0001155909 -0.0009841703
0.02575237 0.0001365554 -0.001188557
0.02861103 0.0001579783 -0.001382648
0.03147083 0.0001805354 -0.001559167
0.03433195 0.0002050987 -0.001712582
0.03719438 0.0002326846 -0.00183849
0.04005796 0.000264425 -0.001933252
0.04292241 0.0003015473 -0.001993788
0.04578731 0.0003453592 -0.002017458
0.04865213 0.0003972353 -0.002001976
0.05151624 0.0004586059 -0.001945362
0.05437893 0.0005309464 -0.001845905
0.05723939 0.0006157672 -0.001702135
0.06009675 0.0007146052 -0.001512805
0.06295006 0.0008290141 -0.001276872
0.0657983 0.0009605567 -0.0009934877
0.06864042 0.001110796 -0.0006619885
0.07147531 0.00128129 -0.0002818849
0.0743018 0.001473579 0.0001471453
0.07711872 0.001689184 0.0006252642
0.07992485 0.001929599 0.001152481
0.08271895 0.002196281 0.001728657
0.08549978 0.002490648 0.002353514
0.08826608 0.002814072 0.00302664
0.09101659 0.003167874 0.003747496
0.09375006 0.003553319 0.004515419
0.09646523 0.003971614 0.005329636
0.0991609 0.0044239 0.006189264
0.1018358 0.004911253 0.007093319
0.1044889 0.005434677 0.008040726
0.1071188 0.005995108 0.00903032
0.1097246 0.006593405 0.01006086
0.1123052 0.007230352 0.01113103
0.1148594 0.007906658 0.01223945
0.1173863 0.008622954 0.01338469
0.1198851 0.009379795 0.01456525
0.1223546 0.01017766 0.01577961
0.1247943 0.01101695 0.0170262
0.1272031 0.01189799 0.01830341
0.1295805 0.01282103 0.01960963
0.1319257 0.01378627 0.02094322
0.1342381 0.0147938 0.02230252
0.1365172 0.01584367 0.02368588
0.1387624 0.01693586 0.02509165
0.1409734 0.01807028 0.02651817
0.1431496 0.0192468 0.0279638
0.1452908 0.02046519 0.02942692
0.1473968 0.02172522 0.03090592
0.1494672 0.02302656 0.03239922
0.151502 0.02436887 0.03390525
0.1535009 0.02575173 0.0354225
0.155464 0.02717471 0.03694946
0.1573911 0.02863732 0.03848469
0.1592824 0.03013904 0.04002675
0.1611379 0.03167933 0.04157426
0.1629577 0.03325759 0.04312589
0.1647419 0.03487323 0.04468034
0.1664908 0.03652562 0.04623635
0.1682046 0.0382141 0.04779273
0.1698834 0.039938 0.04934829
0.1715276 0.04169663 0.05090194
0.1731376 0.04348931 0.05245259
0.1747135 0.04531532 0.05399923
0.1762559 0.04717394 0.05554088
0.1777651 0.04906445 0.0570766
0.1792415 0.05098612 0.05860551
0.1806855 0.05293823 0.06012678
0.1820976 0.05492004 0.0616396
0.1834781 0.05693082 0.06314321
0.1848277 0.05896984 0.06463692
0.1861467 0.06103639 0.06612004
0.1874357 0.06312975 0.06759195
0.1886951 0.06524919 0.06905207
0.1899255 0.06739402 0.07049982
0.1911273 0.06956355 0.07193471
0.1923011 0.07175708 0.07335626
0.1934474 0.07397393 0.074764
0.1945666 0.07621345 0.07615755
0.1956594 0.07847498 0.0775365
0.1967261 0.08075787 0.07890052
0.1977674 0.0830615 0.08024927
0.1987837 0.08538523 0.08158248
0.1997756 0.08772848 0.08289986
0.2007435 0.09009064 0.08420118
0.201688 0.09247114 0.08548622
0.2026095 0.09486941 0.08675478
0.2035085 0.0972849 0.0880067
0.2043855 0.09971706 0.08924181
0.205241 0.1021654 0.09045999
0.2060755 0.1046293 0.09166112
0.2068893 0.1071085 0.0928451
0.207683 0.1096022 0.09401184
0.208457 0.1121102 0.09516129
0.2092118 0.1146318 0.09629339
0.2099477 0.1171668 0.09740809
0.2106651 0.1197146 0.09850538
0.2113646 0.1222748 0.09958524
0.2120464 0.1248471 0.1006477
0.2127111 0.1274309 0.1016926
0.2133589 0.1300261 0.1027202
0.2139902 0.132632 0.1037304
0.2146054 0.1352485 0.1047232
0.2152049 0.1378751 0.1056987
0.215789 0.1405116 0.1066569
0.216358 0.1431575 0.1075979
0.2169124 0.1458125 0.1085217
0.2174523 0.1484765 0.1094284
0.2179781 0.1511489 0.110318
0.2184901 0.1538297 0.1111907
0.2189887 0.1565184 0.1120465
0.219474 0.1592148 0.1128854
0.2199465 0.1619187 0.1137076
0.2204062 0.1646298 0.1145132
0.2208536 0.1673478 0.1153021
0.2212888 0.1700725 0.1160746
0.2217122 0.1728036 0.1168306
0.2221239 0.175541 0.1175703
0.2225242 0.1782845 0.1182938
0.2229133 0.1810337 0.1190011
0.2232914 0.1837886 0.1196924
0.2236588 0.1865489 0.1203677
0.2240156 0.1893144 0.1210272
0.2243621 0.1920849 0.1216708
0.2246984 0.1948603 0.1222987
0.2250247 0.1976403 0.122911
0.2253412 0.2004249 0.1235078
0.225648 0.2032138 0.1240892
0.2259455 0.2060069 0.1246552
0.2262336 0.208804 0.1252059
0.2265125 0.211605 0.1257414
0.2267825 0.2144097 0.1262618
0.2270436 0.217218 0.1267672
0.2272959 0.2200297 0.1272576
0.2275397 0.2228448 0.1277331
0.2277751 0.225663 0.1281938
0.2280021 0.2284843 0.1286398
0.2282209 0.2313085 0.1290712
0.2284315 0.2341356 0.1294879
0.2286342 0.2369653 0.1298901
0.228829 0.2397975 0.1302778
0.229016 0.2426323 0.1306512
0.2291953 0.2454694 0.1310102
0.229367 0.2483087 0.1313549
0.2295312 0.2511502 0.1316853
0.229688 0.2539937 0.1320016
0.2298374 0.2568391 0.1323038
0.2299795 0.2596864 0.1325919
0.2301144 0.2625354 0.132866
0.2302421 0.265386 0.1331261
0.2303628 0.2682382 0.1333722
0.2304764 0.2710918 0.1336045
0.2305831 0.2739468 0.1338229
0.2306829 0.2768031 0.1340275
0.2307758 0.2796606 0.1342183
0.2308618 0.2825191 0.1343953
0.2309411 0.2853787 0.1345586
0.2310137 0.2882392 0.1347082
0.2310795 0.2911006 0.1348441
0.2311387 0.2939627 0.1349663
0.2311912 0.2968255 0.135075
0.2312371 0.2996888 0.13517
0.2312765 0.3025527 0.1352514
0.2313092 0.3054171 0.1353192
0.2313353 0.3082818 0.1353734
0.231355 0.3111468 0.1354141
0.231368 0.3140119 0.1354412
0.2313746 0.3168772 0.1354548
0.2313746 0.3197426 0.1354548
0.231368 0.3226078 0.1354412
0.231355 0.325473 0.1354141
0.2313353 0.328338 0.1353734
0.2313092 0.3312027 0.1353192
0.2312765 0.334067 0.1352514
0.2312371 0.3369309 0.13517
0.2311912 0.3397943 0.135075
0.2311387 0.3426571 0.1349663
0.2310795 0.3455192 0.1348441
0.2310137 0.3483806 0.1347082
0.2309411 0.3512411 0.1345586
0.2308618 0.3541006 0.1343953
0.2307758 0.3569592 0.1342183
0.2306829 0.3598167 0.1340275
0.2305831 0.3626729 0.1338229
0.2304764 0.3655279 0.1336045
0.2303628 0.3683816 0.1333722
0.2302421 0.3712338 0.1331261
0.2301144 0.3740844 0.132866
0.2299795 0.3769334 0.1325919
0.2298374 0.3797807 0.1323038
0.229688 0.3826261 0.1320016
0.2295312 0.3854696 0.1316853
0.229367 0.3883111 0.1313549
0.2291953 0.3911504 0.1310102
0.229016 0.3939875 0.1306512
0.228829 0.3968222 0.1302778
0.2286342 0.3996545 0.1298901
0.2284315 0.4024842 0.1294879
0.2282209 0.4053112 0.1290712
0.2280021 0.4081355 0.1286398
0.2277751 0.4109567 0.1281938
0.2275397 0.413775 0.1277331
0.2272959 0.41659 0.1272576
0.2270436 0.4194018 0.1267672
0.2267825 0.4222101 0.1262618
0.2265125 0.4250148 0.1257414
0.2262336 0.4278158 0.1252059
0.2259455 0.4306129 0.1246552
0.225648 0.433406 0.1240892
0.2253412 0.4361949 0.1235078
0.2250247 0.4389794 0.122911
0.2246984 0.4417595 0.1222987
0.2243621 0.4445349 0.1216708
0.2240156 0.4473054 0.1210272
0.2236588 0.4500709 0.1203677
0.2232914 0.4528312 0.1196924
0.2229133 0.455586 0.1190011
0.2225242 0.4583353 0.1182938
0.2221239 0.4610787 0.1175703
0.2217122 0.4638161 0.1168306
0.2212888 0.4665473 0.1160746
0.2208536 0.469272 0.1153021
0.2204062 0.47199 0.1145132
0.2199465 0.4747011 0.1137076
0.219474 0.4774049 0.1128854
0.2189887 0.4801014 0.1120465
0.2184901 0.4827901 0.1111907
0.2179781 0.4854708 0.110318
0.2174523 0.4881433 0.1094284
0.2169124 0.4908072 0.1085217
0.216358 0.4934623 0.1075979
0.215789 0.4961082 0.1066569
0.2152049 0.4987447 0.1056987
0.2146054 0.5013713 0.1047232
0.2139902 0.5039877 0.1037304
0.2133589 0.5065937 0.1027202
0.2127111 0.5091888 0.1016926
0.2120464 0.5117727 0.1006477
0.2113646 0.5143449 0.09958524
0.2106651 0.5169052 0.09850538
0.2099477 0.519453 0.09740809
0.2092118 0.5219879 0.09629339
0.208457 0.5245096 0.09516129
0.207683 0.5270176 0.09401184
0.2068893 0.5295113 0.0928451
0.2060755 0.5319904 0.09166112
0.205241 0.5344544 0.09045999
0.2043855 0.5369027 0.08924181
0.2035085 0.5393349 0.0880067
0.2026095 0.5417504 0.08675478
0.201688 0.5441486 0.08548622
0.2007435 0.5465291 0.08420118
0.1997756 0.5488913 0.08289986
0.1987837 0.5512345 0.08158248
0.1977674 0.5535583 0.08024927
0.1967261 0.5558619 0.07890052
0.1956594 0.5581448 0.0775365
0.1945666 0.5604063 0.07615755
0.1934474 0.5626458 0.074764
0.1923011 0.5648627 0.07335626
0.1911273 0.5670562 0.07193471
0.1899255 0.5692258 0.07049982
0.1886951 0.5713706 0.06905207
0.1874357 0.57349 0.06759195
0.1861467 0.5755834 0.06612004
0.1848277 0.5776499 0.06463692
0.1834781 0.579689 0.06314321
0.1820976 0.5816997 0.0616396
0.1806855 0.5836815 0.06012678
0.1792415 0.5856336 0.05860551
0.1777651 0.5875553 0.0570766
0.1762559 0.5894458 0.05554088
0.1747135 0.5913045 0.05399923
0.1731376 0.5931305 0.05245259
0.1715276 0.5949231 0.05090194
0.1698834 0.5966818 0.04934829
0.1682046 0.5984057 0.04779273
0.1664908 0.6000942 0.04623635
0.1647419 0.6017465 0.04468034
0.1629577 0.6033622 0.04312589
0.1611379 0.6049404 0.04157426
0.1592824 0.6064807 0.04002675
0.1573911 0.6079825 0.03848469
0.155464 0.6094451 0.03694946
0.1535009 0.610868 0.0354225
0.151502 0.6122509 0.03390525
0.1494672 0.6135932 0.03239922
0.1473968 0.6148946 0.03090592
0.1452908 0.6161546 0.02942692
0.1431496 0.617373 0.0279638
0.1409734 0.6185495 0.02651817
0.1387624 0.6196839 0.02509165
0.1365172 0.6207761 0.02368588
0.1342381 0.621826 0.02230252
0.1319257 0.6228335 0.02094322
0.1295805 0.6237987 0.01960963
0.1272031 0.6247218 0.01830341
0.1247943 0.6256028 0.0170262
0.1223546 0.6264421 0.01577961
0.1198851 0.62724 0.01456525
0.1173863 0.6279968 0.01338469
0.1148594 0.6287131 0.01223945
0.1123052 0.6293894 0.01113103
0.1097246 0.6300264 0.01006086
0.1071188 0.6306247 0.00903032
0.1044889 0.6311851 0.008040726
0.1018358 0.6317085 0.007093319
0.0991609 0.6321959 0.006189264
0.09646523 0.6326482 0.005329636
0.09375006 0.6330665 0.004515419
0.09101659 0.6334519 0.003747496
0.08826608 0.6338057 0.00302664
0.08549978 0.6341291 0.002353514
0.08271895 0.6344235 0.001728657
0.07992485 0.6346902 0.001152481
0.07711872 0.6349306 0.0006252642
0.0743018 0.6351462 0.0001471453
0.07147531 0.6353385 -0.0002818849
0.06864042 0.635509 -0.0006619885
0.0657983 0.6356592 -0.0009934877
0.06295006 0.6357908 -0.001276872
0.06009675 0.6359052 -0.001512805
0.05723939 0.636004 -0.001702135
0.05437893 0.6360888 -0.001845905
0.05151624 0.6361612 -0.001945362
0.04865213 0.6362225 -0.002001976
0.04578731 0.6362744 -0.002017458
0.04292241 0.6363182 -0.001993788
0.04005796 0.6363553 -0.001933252
0.03719438 0.6363871 -0.00183849
0.03433195 0.6364147 -0.001712582
0.03147083 0.6364392 -0.001559167
0.02861103 0.6364618 -0.001382648
0.02575237 0.6364832 -0.001188557
0.02289441 0.6365042 -0.0009841703
0.02003651 0.6365251 -0.0007790469
0.01717794 0.6365458 -0.0005834146
0.01431819 0.6365658 -0.0004058033
0.011457 0.6365844 -0.0002531042
0.008594307 0.6366005 -0.0001311729
0.005730294 0.6366128 -4.5214e-05
0.00286533 0.6366198 0
0 0.6366198 0

LINES 349 1047
2 0 1
2 1 2
2 2 3
2 3 4
2 4 5
2 5 6
2 6 7
2 7 8
2 8 9
2 9 10
2 10 11
2 11 12
2 12 13
2 13 14
2 14 15
2 15 16
2 16 17
2 17 18
2 18 19
2 19 20
2 20 21
2 21 22
2 22 23
2 23 24
2 24 25
2 25 26
2 26 27
2 27 28
2 28 29
2 29 30
2 30 31
2 31 32
2 32 33
2 33 34
2 34 35
2 35 36
2 36 37
2 37 38
2 38 39
2 39 40
2 40 41
2 41 42
2 42 43
2 43 44
2 44 45
2 45 46
2 46 47
2 47 48
2 48 49
2 49 50
2 50 51
2 51 52
2 52 53
2 53 54
2 54 55
2 55 56
2 56 57
2 57 58
2 58 59
2 59 60
2 60 61
2 61 62
2 62 63
2 63 64
2 64 65
2 65 66
2 66 67
2 67 68
2 68 69
2 69 70
2 70 71
2 71 72
2 72 73
2 73 74
2 74 75
2 75 76
2 76 77
2 77 78
2 78 79
2 79 80
2 80 81
2 81 82
2 82 83
2 83 84
2 84 85
2 85 86
2 86 87
2 87 88
2 88 89
2 89 90
2 90 91
2 91 92
2 92 93
2 93 94
2 94 95
2 95 96
2 96 97
2 97 98
2 98 99
2 99 100
2 100 101
2 101 102
2 102 103
2 103 104
2 104 105
2 105 106
2 106 107
2 107 108
2 108 109
2 109 110
2 110 111
2 111 112
2 112 113
2 113 114
2 114 115
2 115 116
2 116 117
2 117 118
2 118 119
2 119 120
2 120 121
2 121 122
2 122 123
2 123 124
2 124 125
2 125 126
2 126 127
2 127 128
2 128 129
2 129 130
2 130 131
2 131 132
2 132 133
2 133 134
2 134 135
2 135 136
2 136 137
2 137 138
2 138 139
2 139 140
2 140 141
2 141 142
2 142 143
2 143 144
2 144 145
2 145 146
2 146 147
2 147 148
2 148 149
2 149 150
2 150 151
2 151 152
2 152 153
2 153 154
2 154 155
2 155 156
2 156 157
2 157 158
2 158 159
2 159 160
2 160 161
2 161 162
2 162 163
2 163 164
2 164 165
2 165 166
2 166 167
2 167 168
2 168 169
2 169 170
2 170 171
2 171 172
2 172 173
2 173 174
2 174 175
2 175 176
2 176 177
2 177 178
2 178 179
2 179 180
2 180 181
2 181 182
2 182 183
2 183 184
2 184 185
2 185 186
2 186 187
2 187 188
2 188 189
2 189 190
2 190 191
2 191 192
2 192 193
2 193 194
2 194 195
2 195 196
2 196 197
2 197 198
2 198 199
2 199 200
2 200 201
2 201 202
2 202 203
2 203 204
2 204 205
2 205 206
2 206 207
2 207 208
2 208 209
2 209 210
2 210 211
2 211 212
2 212 213
2 213 214
2 214 215
2 215 216
2 216 217
2 217 218
2 218 219
2 219 220
2 220 221
2 221 222
2 222 223
2 223 224
2 224 225
2 225 226
2 226 227
2 227 228
2 228 229
2 229 230
2 230 231
2 231 232
2 232 233
2 233 234
2 234 235
2 235 236
2 236 237
2 237 238
2 238 239
2 239 240
2 240 241
2 241 242
2 242 243
2 243 244
2 244 245
2 245 246
2 246 247
2 247 248
2 248 249
2 249 250
2 250 251
2 251 252
2 252 253
2 253 254
2 254 255
2 255 256
2 256 257
2 257 258
2 258 259
2 259 260
2 260 261
2 261 262
2 262 263
2 263 264
2 264 265
2 265 266
2 266 267
2 267 268
2 268 269
2 269 270
2 270 271
2 271 272
2 272 273
2 273 274
2 274 275
2 275 276
2 276 277
2 277 278
2 278 279
2 279 280
2 280 281
2 281 282
2 282 283
2 283 284
2 284 285
2 285 286
2 286 287
2 287 288
2 288 289
2 289 290
2 290 291
2 291 292
2 292 293
2 293 294
2 294 295
2 295 296
2 296 297
2 297 298
2 298 299
2 299 300
2 300 301
2 301 302
2 302 303
2 303 304
2 304 305
2 305 306
2 306 307
2 307 308
2 308 309
2 309 310
2 310 311
2 311 312
2 312 313
2 313 314
2 314 315
2 315 316
2 316 317
2 317 318
2 318 319
2 319 320
2 320 321
2 321 322
2 322 323
2 323 324
2 324 325
2 325 326
2 326 327
2 327 328
2 328 329
2 329 330
2 330 331
2 331 332
2 332 333
2 333 334
2 334 335
2 335 336
2 336 337
2 337 338
2 338 339
2 339 340
2 340 341
2 341 342
2 342 343
2 343 344
2 344 345
2 345 346
2 346 347
2 347 348
2 348 349


POINT_DATA 350
SCALARS a FLOAT 1
LOOKUP_TABLE default
0.0005894628
0.0005894628
0.0005894628
0.0005894628
0.0005894628
0.0005894628
0.0005894628
0.0005894628
0.0005894628
0.0005894628
0.0005894628
0.0005894628
0.0005894628
0.0005894628
0.0005894628
0.0005894628
0.0005894628
0.0005894628
0.0005894628
0.0005894628
0.0005894628
0.0005894628
0.0005894628
0.0005894628
0.0005894628
0.0005894628
0.0005894628
0.0005894628
0.0005894628
0.0005894628
0.0005894628
0.0005894628
0.0005894628
0.0005894628
0.0005894628
0.0005894628
0.0005894628
0.0005894628
0.0005894628
0.0005894628
0.0005894628
0.0005894628
0.0005894628
0.0005894628
0.0005894628
0.0005894628
0.0005894628
0.0005894628
0.0005894628
0.0005894628
0.0005894628
0.0005894628
0.0005894628
0.0005894628
0.0005894628
0.0005894628
0.0005894628
0.0005894628
0.0005894628
0.0005894628
0.0005894628
0.0005894628
0.0005894628
0.0005894628
0.0005894628
0.0005894628
0.0005894628
0.0005894628
0.0005894628
0.0005894628
0.0005894628
0.0005894628
0.0005894628
0.0005894628
0.0005894628
0.0005894628
0.0005894628
0.0005894628
0.0005894628
0.0005894628
0.0005894628
0.0005894628
0.0005894628
0.0005894628
0.0005894628
0.0005894628
0.0005894628
0.0005894628
0.0005894628
0.0005894628
0.0005894628
0.0005894628
0.0005894628
0.0005894628
0.0005894628
0.0005894628
0.0005894628
0.0005894628
0.0005894628
0.0005894628
0.0005894628
0.0005894628
0.0005894628
0.0005894628
0.0005894628
0.0005894628
0.0005894628
0.0005894628
0.0005894628
0.0005894628
0.0005894628
0.0005894628
0.0005894628
0.0005894628
0.0005894628
0.0005894628
0.0005894628
0.0005894628
0.0005894628
0.0005894628
0.0005894628
0.0005894628
0.0005894628
0.0005894628
0.0005894628
0.0005894628
0.0005894628
0.0005894628
0.0005894628
0.0005894628
0.0005894628
0.0005894628
0.0005894628
0.0005894628
0.0005894628
0.0005894628
0.0005894628
0.0005894628
0.0005894628
0.0005894628
0.0005894628
0.0005894628
0.0005894628
0.0005894628
0.0005894628
0.0005894628
0.0005894628
0.0005894628
0.0005894628
0.0005894628
0.0005894628
0.0005894628
0.0005894628
0.0005894628
0.0005894628
0.0005894628
0.0005894628
0.0005894628
0.0005894628
0.0005894628
0.0005894628
0.0005894628
0.0005894628
0.0005894628
0.0005894628
0.0005894628
0.0005894628
0.0005894628
0.0005894628
0.0005894628
0.0005894628
0.0005894628
0.0005894628
0.0005894628
0.0005894628
0.0005894628
0.0005894628
0.0005894628
0.0005894628
0.0005894628
0.0005894628
0.0005894628
0.0005894628
0.0005894628
0.0005894628
0.0005894628
0.0005894628
0.0005894628
0.0005894628
0.0005894628
0.0005894628
0.0005894628
0.0005894628
0.0005894628
0.0005894628
0.0005894628
0.0005894628
0.0005894628
0.0005894628
0.0005894628
0.0005894628
0.0005894628
0.0005894628
0.0005894628
0.0005894628
0.0005894628
0.0005894628
0.0005894628
0.0005894628
0.0005894628
0.0005894628
0.0005894628
0.0005894628
0.0005894628
0.0005894628
0.0005894628
0.0005894628
0.0005894628
0.0005894628
0.0005894628
0.0005894628
0.0005894628
0.0005894628
0.0005894628
0.0005894628
0.0005894628
0.0005894628
0.0005894628
0.0005894628
0.0005894628
0.0005894628
0.0005894628
0.0005894628
0.0005894628
0.0005894628
0.0005894628
0.0005894628
0.0005894628
0.0005894628
0.0005894628
0.0005894628
0.0005894628
0.0005894628
0.0005894628
0.0005894628
0.0005894628
0.0005894628
0.0005894628
0.0005894628
0.0005894628
0.0005894628
0.0005894628
0.0005894628
0.0005894628
0.0005894628
0.0005894628
0.0005894628
0.0005894628
0.0005894628
0.0005894628
0.0005894628
0.0005894628
0.0005894628
0.0005894628
0.0005894628
0.0005894628
0.0005894628
0.0005894628
0.0005894628
0.0005894628
0.0005894628
0.0005894628
0.0005894628
0.0005894628
0.0005894628
0.0005894628
0.0005894628
0.0005894628
0.0005894628
0.0005894628
0.0005894628
0.0005894628
0.0005894628
0.0005894628
0.0005894628
0.0005894628
0.0005894628
0.0005894628
0.0005894628
0.0005894628
0.0005894628
0.0005894628
0.0005894628
0.0005894628
0.0005894628
0.0005894628
0.0005894628
0.0005894628
0.0005894628
0.0005894628
0.0005894628
0.0005894628
0.0005894628
0.0005894628
0.0005894628
0.0005894628
0.0005894628
0.0005894628
0.0005894628
0.0005894628
0.0005894628
0.0005894628
0.0005894628
0.0005894628
0.0005894628
0.0005894628
0.0005894628
0.0005894628
0.0005894628
0.0005894628
0.0005894628
0.0005894628
0.0005894628
0.0005894628
0.0005894628
0.0005894628
0.0005894628
0.0005894628
0.0005894628
0.0005894628
0.0005894628
0.0005894628
0.0005894628
0.0005894628
0.0005894628
0.0005894628
0.0005894628
0.0005894628
0.0005894628
0.0005894628
0.0005894628
0.0005894628
0.0005894628
0.0005894628
0.0005894628
0.0005894628
0.0005894628
0.0005894628
0.0005894628
0.0005894628


SCALARS b FLOAT 1
LOOKUP_TABLE default
0.02357851
0.02357851
0.02357851
0.02357851
0.02357851
0.02357851
0.02357851
0.02357851
0.02357851
0.02357851
0.02357851
0.02357851
0.02357851
0.02357851
0.02357851
0.02357851
0.02357851
0.02357851
0.02357851
0.02357851
0.02357851
0.02357851
0.02357851
0.02357851
0.02357851
0.02357851
0.02357851
0.02357851
0.02357851
0.02357851
0.02357851
0.02357851
0.02357851
0.02357851
0.02357851
0.02357851
0.02357851
0.02357851
0.02357851
0.02357851
0.02357851
0.02357851
0.02357851
0.02357851
0.02357851
0.02357851
0.02357851
0.02357851
0.02357851
0.02357851
0.02357851
0.02357851
0.02357851
0.02357851
0.02357851
0.02357851
0.02357851
0.02357851
0.02357851
0.02357851
0.02357851
0.02357851
0.02357851
0.02357851
0.02357851
0.02357851
0.02357851
0.02357851
0.02357851
0.02357851
0.02357851
0.02357851
0.02357851
0.02357851
0.02357851
0.02357851
0.02357851
0.02357851
0.02357851
0.02357851
0.02357851
0.02357851
0.02357851
0.02357851
0.02357851
0.02357851
0.02357851
0.02357851
0.02357851
0.02357851
0.02357851
0.02357851
0.02357851
0.02357851
0.02357851
0.02357851
0.02357851
0.02357851
0.02357851
0.02357851
0.02357851
0.02357851
0.02357851
0.02357851
0.02357851
0.02357851
0.02357851
0.02357851
0.02357851
0.02357851
0.02357851
0.02357851
0.02357851
0.02357851
0.02357851
0.02357851
0.02357851
0.02357851
0.02357851
0.02357851
0.02357851
0.02357851
0.02357851
0.02357851
0.02357851
0.02357851
0.02357851
0.02357851
0.02357851
0.02357851
0.02357851
0.02357851
0.02357851
0.02357851
0.02357851
0.02357851
0.02357851
0.02357851
0.02357851
0.02357851
0.02357851
0.02357851
0.02357851
0.02357851
0.02357851
0.02357851
0.02357851
0.02357851
0.02357851
0.02357851
0.02357851
0.02357851
0.02357851
0.02357851
0.02357851
0.02357851
0.02357851
0.02357851
0.02357851
0.02357851
0.02357851
0.02357851
0.02357851
0.02357851
0.02357851
0.02357851
0.02357851
0.02357851
0.02357851
0.02357851
0.02357851
0.02357851
0.02357851
0.02357851
0.02357851
0.02357851
0.02357851
0.02357851
0.02357851
0.02357851
0.02357851
0.02357851
0.02357851
0.02357851
0.02357851
0.02357851
0.02357851
0.02357851
0.02357851
0.02357851
0.02357851
0.02357851
0.02357851
0.02357851
0.02357851
0.02357851
0.02357851
0.02357851
0.02357851
0.02357851
0.02357851
0.02357851
0.02357851
0.02357851
0.02357851
0.02357851
0.02357851
0.02357851
0.02357851
0.02357851
0.02357851
0.02357851
0.02357851
0.02357851
0.02357851
0.02357851
0.02357851
0.02357851
0.02357851
0.02357851
0.02357851
0.02357851
0.02357851
0.02357851
0.02357851
0.02357851
0.02357851
0.02357851
0.02357851
0.02357851
0.02357851
0.02357851
0.02357851
0.02357851
0.02357851
0.02357851
0.02357851
0.02357851
0.02357851
0.02357851
0.02357851
0.02357851
0.02357851
0.02357851
0.02357851
0.02357851
0.02357851
0.02357851
0.02357851
0.02357851
0.02357851
0.02357851
0.02357851
0.02357851
0.02357851
0.02357851
0.02357851
0.02357851
0.02357851
0.02357851
0.02357851
0.02357851
0.02357851
0.02357851
0.02357851
0.02357851
0.02357851
0.02357851
0.02357851
0.02357851
0.02357851
0.02357851
0.02357851
0.02357851
0.02357851
0.02357851
0.02357851
0.02357851
0.02357851
0.02357851
0.02357851
0.02357851
0.02357851
0.02357851
0.02357851
0.02357851
0.02357851
0.02357851
0.02357851
0.02357851
0.02357851
0.02357851
0.02357851
0.02357851
0.02357851
0.02357851
0.02357851
0.02357851
0.02357851
0.02357851
0.02357851
0.02357851
0.02357851
0.02357851
0.02357851
0.02357851
0.02357851
0.02357851
0.02357851
0.02357851
0.02357851
0.02357851
0.02357851
0.02357851
0.02357851
0.02357851
0.02357851
0.02357851
0.02357851
0.02357851
0.02357851
0.02357851
0.02357851
0.02357851
0.02357851
0.02357851
0.02357851
0.02357851
0.02357851
0.02357851
0.02357851
0.02357851
0.02357851
0.02357851
0.02357851
0.02357851
0.02357851
0.02357851
0.02357851
0.02357851
0.02357851
0.02357851
0.02357851
0.02357851
0.02357851
0.02357851
0.02357851
0.02357851
0.02357851
0.02357851


VECTORS d1 FLOAT
0 -0.1626372 0.9866859
0.01596528 -0.138497 0.9902342
0.03029299 -0.1144524 0.9929668
0.04288752 -0.09055555 0.9949675
0.05360717 -0.06685261 0.9963217
0.06223264 -0.04338264 0.9971184
0.06840906 -0.02017109 0.9974534
0.07156935 0.002796291 0.9974317
0.07112241 0.02564157 0.997138
0.06729753 0.04855983 0.9965505
0.06088562 0.07163217 0.9955711
0.05249047 0.0948493 0.9941068
0.04249928 0.1181745 0.992083
0.03117339 0.1415639 0.9894382
0.01870256 0.1649724 0.9861208
0.005233499 0.1883545 0.9820872
-0.00911446 0.2116654 0.9772997
-0.02424024 0.2348609 0.9717267
-0.04005542 0.2578973 0.9653417
-0.05648066 0.2807318 0.9581229
-0.07344329 0.3033225 0.9500535
-0.09087576 0.3256281 0.9411206
-0.1087144 0.3476088 0.9313159
-0.126899 0.3692255 0.9206352
-0.1453715 0.3904406 0.9090783
-0.1640768 0.4112179 0.8966485
-0.1829612 0.4315229 0.8833534
-0.2019733 0.4513225 0.8692035
-0.2210633 0.4705856 0.8542132
-0.2401833 0.4892829 0.8383998
-0.259287 0.5073873 0.8217837
-0.2783298 0.5248736 0.8043881
-0.2972689 0.5417189 0.786239
-0.3160636 0.5579026 0.7673647
-0.3346746 0.5734063 0.7477955
-0.3530648 0.588214 0.7275641
-0.371199 0.6023121 0.7067046
-0.389044 0.6156893 0.6852528
-0.4065688 0.6283367 0.6632457
-0.4237441 0.6402476 0.6407214
-0.4405431 0.6514178 0.6177189
-0.4569409 0.6618452 0.5942777
-0.4729149 0.6715298 0.5704377
-0.4884444 0.6804739 0.5462392
-0.503511 0.6886817 0.5217223
-0.5180984 0.6961592 0.4969269
-0.5321922 0.7029145 0.4718926
-0.5457802 0.7089571 0.4466585
-0.558852 0.7142982 0.4212629
-0.5713993 0.7189506 0.3957434
-0.5834155 0.7229283 0.3701365
-0.5948958 0.7262466 0.3444777
-0.6058371 0.7289219 0.3188013
-0.6162381 0.7309715 0.2931404
-0.6260989 0.7324136 0.2675267
-0.6354209 0.7332672 0.2419905
-0.6442072 0.733552 0.2165606
-0.6524619 0.733288 0.1912645
-0.6601905 0.7324958 0.1661281
-0.6673993 0.731196 0.1411755
-0.6740959 0.7294099 0.1164297
-0.6802887 0.7271585 0.09191192
-0.6859869 0.7244629 0.06764186
-0.6912005 0.7213443 0.04363779
-0.6959402 0.7178235 0.01991645
-0.700217 0.7139215 -0.00350684
-0.7040428 0.7096585 -0.02661818
-0.7074296 0.7050549 -0.04940502
-0.7103901 0.7001304 -0.07185617
-0.7129369 0.6949044 -0.09396167
-0.7150832 0.6893958 -0.1157128
-0.7168421 0.683623 -0.137102
-0.7182269 0.677604 -0.1581229
-0.7192512 0.6713561 -0.1787701
-0.7199282 0.6648961 -0.1990392
-0.7202715 0.6582402 -0.2189267
-0.7202943 0.651404 -0.2384301
-0.72001 0.6444026 -0.2575478
-0.7194317 0.6372503 -0.2762788
-0.7185725 0.6299611 -0.2946228
-0.7174451 0.6225481 -0.3125804
-0.7160621 0.6150238 -0.3301526
-0.714436 0.6074004 -0.3473411
-0.712579 0.5996893 -0.3641482
-0.710503 0.5919013 -0.3805764
-0.7082197 0.5840467 -0.3966288
-0.7057404 0.5761352 -0.4123091
-0.7030763 0.568176 -0.4276211
-0.7002382 0.5601779 -0.4425688
-0.6972367 0.5521489 -0.457157
-0.6940821 0.5440969 -0.4713902
-0.6907842 0.5360289 -0.4852734
-0.6873528 0.5279517 -0.4988118
-0.6837972 0.5198716 -0.5120107
-0.6801265 0.5117945 -0.5248756
-0.6763494 0.5037259 -0.537412
-0.6724746 0.4956708 -0.5496256
-0.6685102 0.487634 -0.5615222
-0.664464 0.4796198 -0.5731076
-0.6603439 0.4716323 -0.5843877
-0.6561571 0.463675 -0.5953682
-0.6519109 0.4557514 -0.6060552
-0.6476119 0.4478647 -0.6164544
-0.643267 0.4400174 -0.6265718
-0.6388823 0.4322124 -0.6364133
-0.6344641 0.4244517 -0.6459845
-0.6300183 0.4167374 -0.6552914
-0.6255505 0.4090715 -0.6643396
-0.6210661 0.4014555 -0.6731348
-0.6165704 0.3938908 -0.6816825
-0.6120685 0.3863786 -0.6899883
-0.607565 0.37892 -0.6980576
-0.6030648 0.3715159 -0.7058958
-0.5985722 0.3641669 -0.7135081
-0.5940914 0.3568737 -0.7208998
-0.5896267 0.3496368 -0.7280759
-0.5851818 0.3424563 -0.7350415
-0.5807606 0.3353325 -0.7418013
-0.5763667 0.3282655 -0.7483603
-0.5720035 0.3212552 -0.7547232
-0.5676743 0.3143015 -0.7608945
-0.5633824 0.3074041 -0.7668788
-0.5591306 0.3005628 -0.7726804
-0.5549221 0.2937771 -0.7783036
-0.5507595 0.2870466 -0.7837527
-0.5466454 0.2803708 -0.7890317
-0.5425826 0.2737489 -0.7941446
-0.5385733 0.2671805 -0.7990953
-0.53462 0.2606647 -0.8038877
-0.5307248 0.2542009 -0.8085253
-0.5268899 0.2477881 -0.8130118
-0.5231173 0.2414255 -0.8173506
-0.5194091 0.2351123 -0.8215451
-0.515767 0.2288475 -0.8255987
-0.5121929 0.2226302 -0.8295145
-0.5086884 0.2164593 -0.8332956
-0.5052552 0.2103339 -0.836945
-0.5018948 0.2042529 -0.8404656
-0.4986087 0.1982153 -0.8438602
-0.4953984 0.1922199 -0.8471316
-0.4922652 0.1862657 -0.8502824
-0.4892103 0.1803516 -0.8533151
-0.486235 0.1744764 -0.8562321
-0.4833406 0.168639 -0.859036
-0.480528 0.1628383 -0.8617288
-0.4777983 0.157073 -0.8643129
-0.4751527 0.1513421 -0.8667903
-0.4725919 0.1456443 -0.8691631
-0.4701171 0.1399786 -0.8714333
-0.4677289 0.1343436 -0.8736026
-0.4654282 0.1287382 -0.8756729
-0.4632159 0.1231613 -0.8776459
-0.4610926 0.1176115 -0.8795232
-0.4590591 0.1120879 -0.8813064
-0.457116 0.1065891 -0.882997
-0.455264 0.1011139 -0.8845964
-0.4535035 0.09566121 -0.8861058
-0.4518352 0.09022979 -0.8875266
-0.4502596 0.08481845 -0.88886
-0.4487772 0.079426 -0.8901071
-0.4473883 0.07405125 -0.8912688
-0.4460935 0.06869301 -0.8923463
-0.4448931 0.06335009 -0.8933403
-0.4437875 0.05802131 -0.8942518
-0.4427769 0.05270549 -0.8950814
-0.4418617 0.04740143 -0.89583
-0.4410422 0.04210796 -0.896498
-0.4403185 0.0368239 -0.8970862
-0.4396909 0.03154807 -0.8975949
-0.4391595 0.02627929 -0.8980247
-0.4387246 0.02101639 -0.8983758
-0.4383862 0.01575818 -0.8986486
-0.4381444 0.0105035 -0.8988432
-0.4379993 0.005251161 -0.89896
-0.4379509 -2.618883e-11 -0.8989989
-0.4379993 -0.005251161 -0.89896
-0.4381444 -0.0105035 -0.8988432
-0.4383862 -0.01575818 -0.8986486
-0.4387246 -0.02101639 -0.8983758
-0.4391595 -0.02627929 -0.8980247
-0.4396909 -0.03154807 -0.8975949
-0.4403185 -0.0368239 -0.8970862
-0.4410422 -0.04210796 -0.896498
-0.4418617 -0.04740143 -0.89583
-0.4427769 -0.05270549 -0.8950814
-0.4437875 -0.05802131 -0.8942518
-0.4448931 -0.06335009 -0.8933403
-0.4460935 -0.06869301 -0.8923463
-0.4473883 -0.07405125 -0.8912688
-0.4487772 -0.079426 -0.8901071
-0.4502596 -0.08481845 -0.88886
-0.4518352 -0.09022979 -0.8875266
-0.4535035 -0.09566121 -0.8861058
-0.455264 -0.1011139 -0.8845964
-0.457116 -0.1065891 -0.882997
-0.4590591 -0.1120879 -0.8813064
-0.4610926 -0.1176115 -0.8795232
-0.4632159 -0.1231613 -0.8776459
-0.4654282 -0.1287382 -0.8756729
-0.4677289 -0.1343436 -0.8736026
-0.4701171 -0.1399786 -0.8714333
-0.4725919 -0.1456443 -0.8691631
-0.4751527 -0.1513421 -0.8667903
-0.4777983 -0.157073 -0.8643129
-0.480528 -0.1628383 -0.8617288
-0.4833406 -0.168639 -0.859036
-0.486235 -0.1744764 -0.8562321
-0.4892103 -0.1803516 -0.8533151
-0.4922652 -0.1862657 -0.8502824
-0.4953984 -0.1922199 -0.8471316
-0.4986087 -0.1982153 -0.8438602
-0.5018948 -0.2042529 -0.8404656
-0.5052552 -0.2103339 -0.836945
-0.5086884 -0.2164593 -0.8332956
-0.5121929 -0.2226302 -0.8295145
-0.515767 -0.2288475 -0.8255987
-0.5194091 -0.2351123 -0.8215451
-0.5231173 -0.2414255 -0.8173506
-0.5268899 -0.2477881 -0.8130118
-0.5307248 -0.2542009 -0.8085253
-0.53462 -0.2606647 -0.8038877
-0.5385733 -0.2671805 -0.7990953
-0.5425826 -0.2737489 -0.7941446
-0.5466454 -0.2803708 -0.7890317
-0.5507595 -0.2870466 -0.7837527
-0.5549221 -0.2937771 -0.7783036