# vtk DataFile Version 2.0
Written badly by Kevin Korner
ASCII
DATASET POLYDATA
POINTS 350 FLOAT
0 0 0
0.00286533 0 0
0.00573061 1.747338e-06 1.659683e-05
0.008595714 5.892307e-06 5.233739e-05
0.01146046 1.316188e-05 0.0001095515
0.01432463 2.435013e-05 0.0001903666
0.01718794 4.030974e-05 0.000296722
0.02005007 6.194439e-05 0.0004303821
0.02291064 9.020191e-05 0.0005929476
0.02576925 0.0001260679 0.0007858662
0.02862542 0.0001705601 0.001010441
0.03147865 0.0002247225 0.001267837
0.0343284 0.0002896207 0.001559092
0.03717408 0.0003663365 0.001885115
0.04001509 0.0004559637 0.002246699
0.04285078 0.0005596031 0.002644522
0.04568046 0.0006783589 0.00307915
0.04850344 0.0008133339 0.003551045
0.05131899 0.0009656259 0.004060564
0.05412636 0.001136324 0.004607966
0.05692479 0.001326505 0.005193415
0.05971349 0.00153723 0.005816981
0.06249168 0.001769541 0.006478647
0.06525856 0.002024457 0.007178309
0.06801331 0.002302973 0.007915782
0.07075514 0.002606057 0.008690799
0.07348322 0.002934645 0.00950302
0.07619676 0.003289642 0.01035203
0.07889494 0.003671917 0.01123736
0.08157697 0.004082305 0.01215844
0.08424207 0.0045216 0.01311468
0.08688945 0.004990557 0.0141054
0.08951837 0.005489891 0.0151299
0.09212807 0.006020273 0.01618738
0.09471783 0.006582332 0.01727703
0.09728694 0.007176654 0.01839799
0.09983472 0.007803778 0.01954936
0.1023605 0.0084642 0.02073018
0.1048637 0.009158371 0.02193949
0.1073436 0.009886696 0.02317629
0.1097997 0.01064954 0.02443954
0.1122314 0.01144721 0.02572818
0.1146382 0.01227998 0.02704115
0.1170196 0.01314808 0.02837736
0.1193751 0.01405169 0.02973571
0.1217043 0.01499097 0.03111507
0.1240068 0.015966 0.03251433
0.1262822 0.01697685 0.03393237
0.1285302 0.01802355 0.03536807
0.1307504 0.01910608 0.03682028
0.1329426 0.02022437 0.0382879
0.1351065 0.02137836 0.0397698
0.1372418 0.02256792 0.04126489
0.1393485 0.02379289 0.04277204
0.1414263 0.02505308 0.04429019
0.1434751 0.02634829 0.04581826
0.1454948 0.02767828 0.04735518
0.1474853 0.02904276 0.04889992
0.1494465 0.03044146 0.05045145
0.1513785 0.03187405 0.05200877
0.1532812 0.0333402 0.05357089
0.1551547 0.03483955 0.05513685
0.1569989 0.03637171 0.05670571
0.158814 0.03793629 0.05827656
0.1606001 0.03953289 0.05984849
0.1623572 0.04116108 0.06142065
0.1640855 0.04282041 0.06299219
0.1657851 0.04451043 0.06456228
0.1674562 0.0462307 0.06613014
0.169099 0.04798072 0.06769499
0.1707137 0.04976004 0.0692561
0.1723004 0.05156815 0.07081276
0.1738594 0.05340457 0.07236426
0.1753909 0.0552688 0.07390994
0.1768953 0.05716034 0.07544917
0.1783726 0.05907869 0.07698133
0.1798232 0.06102334 0.07850584
0.1812474 0.06299379 0.08002211
0.1826455 0.06498952 0.08152963
0.1840177 0.06701004 0.08302787
0.1853643 0.06905484 0.08451633
0.1866857 0.07112341 0.08599455
0.1879821 0.07321525 0.08746208
0.1892538 0.07532986 0.08891849
0.1905013 0.07746676 0.09036338
0.1917247 0.07962545 0.09179636
0.1929244 0.08180544 0.09321708
0.1941007 0.08400625 0.09462517
0.195254 0.08622742 0.09602033
0.1963846 0.08846846 0.09740224
0.1974928 0.09072891 0.09877061
0.1985788 0.09300832 0.1001252
0.1996432 0.09530623 0.1014657
0.2006861 0.0976222 0.1027919
0.2017078 0.09995579 0.1041035
0.2027088 0.1023066 0.1054005
0.2036893 0.1046741 0.1066824
0.2046496 0.107058 0.1079493
0.20559 0.1094578 0.1092009
0.2065109 0.1118732 0.1104371
0.2074126 0.1143037 0.1116576
0.2082953 0.116749 0.1128625
0.2091594 0.1192086 0.1140515
0.2100051 0.1216822 0.1152245
0.2108327 0.1241695 0.1163815
0.2116426 0.12667 0.1175223
0.2124349 0.1291835 0.1186469
0.2132101 0.1317096 0.1197552
0.2139682 0.1342479 0.1208471
0.2147097 0.1367981 0.1219226
0.2154348 0.1393599 0.1229816
0.2161437 0.141933 0.124024
0.2168367 0.1445171 0.1250499
0.2175141 0.1471119 0.1260591
0.218176 0.149717 0.1270517
0.2188227 0.1523323 0.1280276
0.2194545 0.1549573 0.1289868
0.2200716 0.1575919 0.1299293
0.2206742 0.1602357 0.1308551
0.2212625 0.1628886 0.1317642
0.2218367 0.1655502 0.1326566
0.2223971 0.1682203 0.1335322
0.2229438 0.1708986 0.1343911
0.223477 0.1735849 0.1352333
0.223997 0.1762791 0.1360587
0.224504 0.1789807 0.1368675
0.224998 0.1816897 0.1376596
0.2254793 0.1844058 0.138435
0.2259481 0.1871288 0.1391938
0.2264045 0.1898585 0.1399359
0.2268488 0.1925946 0.1406614
0.2272809 0.195337 0.1413703
0.2277012 0.1980855 0.1420626
0.2281098 0.2008399 0.1427384
0.2285067 0.2035999 0.1433976
0.2288922 0.2063655 0.1440404
0.2292664 0.2091364 0.1446666
0.2296295 0.2119124 0.1452765
0.2299815 0.2146935 0.1458698
0.2303225 0.2174793 0.1464468
0.2306528 0.2202698 0.1470074
0.2309724 0.2230647 0.1475517
0.2312814 0.225864 0.1480796
0.2315799 0.2286674 0.1485912
0.2318681 0.2314749 0.1490865
0.232146 0.2342862 0.1495656
0.2324138 0.2371012 0.1500285
0.2326715 0.2399197 0.1504752
0.2329193 0.2427417 0.1509056
0.2331571 0.2455669 0.15132
0.2333852 0.2483952 0.1517182
0.2336035 0.2512266 0.1521003
0.2338122 0.2540607 0.1524663
0.2340113 0.2568976 0.1528162
0.2342009 0.2597371 0.1531501
0.234381 0.2625791 0.1534679
0.2345518 0.2654233 0.1537698
0.2347132 0.2682698 0.1540556
0.2348653 0.2711183 0.1543255
0.2350083 0.2739688 0.1545794
0.2351421 0.2768211 0.1548174
0.2352667 0.2796751 0.1550394
0.2353823 0.2825307 0.1552456
0.2354889 0.2853877 0.1554358
0.2355864 0.288246 0.1556101
0.2356749 0.2911056 0.1557685
0.2357546 0.2939663 0.1559111
0.2358253 0.2968279 0.1560378
0.2358871 0.2996905 0.1561487
0.23594 0.3025537 0.1562437
0.2359841 0.3054176 0.1563228
0.2360194 0.308282 0.1563862
0.2360458 0.3111468 0.1564337
0.2360634 0.3140119 0.1564653
0.2360722 0.3168772 0.1564811
0.2360722 0.3197426 0.1564811
0.2360634 0.3226078 0.1564653
0.2360458 0.3254729 0.1564337
0.2360194 0.3283377 0.1563862
0.2359841 0.3312022 0.1563228
0.23594 0.334066 0.1562437
0.2358871 0.3369293 0.1561487
0.2358253 0.3397918 0.1560378
0.2357546 0.3426535 0.1559111
0.2356749 0.3455142 0.1557685
0.2355864 0.3483737 0.1556101
0.2354889 0.3512321 0.1554358
0.2353823 0.3540891 0.1552456
0.2352667 0.3569447 0.1550394
0.2351421 0.3597987 0.1548174
0.2350083 0.362651 0.1545794
0.2348653 0.3655014 0.1543255
0.2347132 0.36835 0.1540556
0.2345518 0.3711964 0.1537698
0.234381 0.3740407 0.1534679
0.2342009 0.3768826 0.1531501
0.2340113 0.3797221 0.1528162
0.2338122 0.382559 0.1524663
0.2336035 0.3853932 0.1521003
0.2333852 0.3882246 0.1517182
0.2331571 0.3910529 0.15132
0.2329193 0.3938781 0.1509056
0.2326715 0.3967001 0.1504752
0.2324138 0.3995186 0.1500285
0.232146 0.4023336 0.1495656
0.2318681 0.4051449 0.1490865
0.2315799 0.4079523 0.1485912
0.2312814 0.4107558 0.1480796
0.2309724 0.413555 0.1475517
0.2306528 0.41635 0.1470074
0.2303225 0.4191405 0.1464468
0.2299815 0.4219263 0.1458698
0.2296295 0.4247073 0.1452765
0.2292664 0.4274834 0.1446666
0.2288922 0.4302543 0.1440404
0.2285067 0.4330198 0.1433976
0.2281098 0.4357799 0.1427384
0.2277012 0.4385343 0.1420626
0.2272809 0.4412828 0.1413703
0.2268488 0.4440252 0.1406614
0.2264045 0.4467613 0.1399359
0.2259481 0.449491 0.1391938
0.2254793 0.4522139 0.138435
0.224998 0.45493 0.1376596
0.224504 0.457639 0.1368675
0.223997 0.4603407 0.1360587
0.223477 0.4630348 0.1352333
0.2229438 0.4657212 0.1343911
0.2223971 0.4683995 0.1335322
0.2218367 0.4710696 0.1326566
0.2212625 0.4737312 0.1317642
0.2206742 0.476384 0.1308551
0.2200716 0.4790279 0.1299293
0.2194545 0.4816625 0.1289868
0.2188227 0.4842875 0.1280276
0.218176 0.4869027 0.1270517
0.2175141 0.4895079 0.1260591
0.2168367 0.4921026 0.1250499
0.2161437 0.4946867 0.124024
0.2154348 0.4972598 0.1229816
0.2147097 0.4998217 0.1219226
0.2139682 0.5023719 0.1208471
0.2132101 0.5049102 0.1197552
0.2124349 0.5074363 0.1186469
0.2116426 0.5099497 0.1175223
0.2108327 0.5124503 0.1163815
0.2100051 0.5149375 0.1152245
0.2091594 0.5174112 0.1140515
0.2082953 0.5198708 0.1128625
0.2074126 0.5223161 0.1116576
0.2065109 0.5247466 0.1104371
0.20559 0.5271619 0.1092009
0.2046496 0.5295618 0.1079493
0.2036893 0.5319457 0.1066824
0.2027088 0.5343132 0.1054005
0.2017078 0.536664 0.1041035
0.2006861 0.5389976 0.1027919
0.1996432 0.5413135 0.1014657
0.1985788 0.5436115 0.1001252
0.1974928 0.5458909 0.09877061
0.1963846 0.5481513 0.09740224
0.195254 0.5503924 0.09602033
0.1941007 0.5526135 0.09462517
0.1929244 0.5548143 0.09321708
0.1917247 0.5569943 0.09179636
0.1905013 0.559153 0.09036338
0.1892538 0.5612899 0.08891849
0.1879821 0.5634045 0.08746208
0.1866857 0.5654964 0.08599455
0.1853643 0.5675649 0.08451633
0.1840177 0.5696097 0.08302787
0.1826455 0.5716302 0.08152963
0.1812474 0.573626 0.08002211
0.1798232 0.5755964 0.07850584
0.1783726 0.5775411 0.07698133
0.1768953 0.5794594 0.07544917
0.1753909 0.581351 0.07390994
0.1738594 0.5832152 0.07236426
0.1723004 0.5850516 0.07081276
0.1707137 0.5868597 0.0692561
0.169099 0.588639 0.06769499
0.1674562 0.5903891 0.06613014
0.1657851 0.5921093 0.06456228
0.1640855 0.5937994 0.06299219
0.1623572 0.5954587 0.06142065
0.1606001 0.5970869 0.05984849
0.158814 0.5986835 0.05827656
0.1569989 0.6002481 0.05670571
0.1551547 0.6017802 0.05513685
0.1532812 0.6032796 0.05357089
0.1513785 0.6047457 0.05200877
0.1494465 0.6061783 0.05045145
0.1474853 0.607577 0.04889992
0.1454948 0.6089415 0.04735518
0.1434751 0.6102715 0.04581826
0.1414263 0.6115667 0.04429019
0.1393485 0.6128269 0.04277204
0.1372418 0.6140519 0.04126489
0.1351065 0.6152414 0.0397698
0.1329426 0.6163954 0.0382879
0.1307504 0.6175137 0.03682028
0.1285302 0.6185962 0.03536807
0.1262822 0.6196429 0.03393237
0.1240068 0.6206538 0.03251433
0.1217043 0.6216288 0.03111507
0.1193751 0.6225681 0.02973571
0.1170196 0.6234717 0.02837736
0.1146382 0.6243398 0.02704115
0.1122314 0.6251726 0.02572818
0.1097997 0.6259702 0.02443954
0.1073436 0.6267331 0.02317629
0.1048637 0.6274614 0.02193949
0.1023605 0.6281556 0.02073018
0.09983472 0.628816 0.01954936
0.09728694 0.6294431 0.01839799
0.09471783 0.6300374 0.01727703
0.09212807 0.6305995 0.01618738
0.08951837 0.6311299 0.0151299
0.08688945 0.6316292 0.0141054
0.08424207 0.6320982 0.01311468
0.08157697 0.6325375 0.01215844
0.07889494 0.6329479 0.01123736
0.07619676 0.6333301 0.01035203
0.07348322 0.6336851 0.00950302
0.07075514 0.6340137 0.008690799
0.06801331 0.6343168 0.007915782
0.06525856 0.6345953 0.007178309
0.06249168 0.6348502 0.006478647
0.05971349 0.6350825 0.005816981
0.05692479 0.6352933 0.005193415
0.05412636 0.6354834 0.004607966
0.05131899 0.6356541 0.004060564
0.04850344 0.6358064 0.003551045
0.04568046 0.6359414 0.00307915
0.04285078 0.6360602 0.002644522
0.04001509 0.6361638 0.002246699
0.03717408 0.6362534 0.001885115
0.0343284 0.6363302 0.001559092
0.03147865 0.636395 0.001267837
0.02862542 0.6364492 0.001010441
0.02576925 0.6364937 0.0007858662
0.02291064 0.6365296 0.0005929476
0.02005007 0.6365578 0.0004303821
0.01718794 0.6365795 0.000296722
0.01432463 0.6365954 0.0001903666
0.01146046 0.6366066 0.0001095515
0.008595714 0.6366139 5.233739e-05
0.00573061 0.636618 1.659683e-05
0.00286533 0.6366198 0
0 0.6366198 0

LINES 349 1047
2 0 1
2 1 2
2 2 3
2 3 4
2 4 5
2 5 6
2 6 7
2 7 8
2 8 9
2 9 10
2 10 11
2 11 12
2 12 13
2 13 14
2 14 15
2 15 16
2 16 17
2 17 18
2 18 19
2 19 20
2 20 21
2 21 22
2 22 23
2 23 24
2 24 25
2 25 26
2 26 27
2 27 28
2 28 29
2 29 30
2 30 31
2 31 32
2 32 33
2 33 34
2 34 35
2 35 36
2 36 37
2 37 38
2 38 39
2 39 40
2 40 41
2 41 42
2 42 43
2 43 44
2 44 45
2 45 46
2 46 47
2 47 48
2 48 49
2 49 50
2 50 51
2 51 52
2 52 53
2 53 54
2 54 55
2 55 56
2 56 57
2 57 58
2 58 59
2 59 60
2 60 61
2 61 62
2 62 63
2 63 64
2 64 65
2 65 66
2 66 67
2 67 68
2 68 69
2 69 70
2 70 71
2 71 72
2 72 73
2 73 74
2 74 75
2 75 76
2 76 77
2 77 78
2 78 79
2 79 80
2 80 81
2 81 82
2 82 83
2 83 84
2 84 85
2 85 86
2 86 87
2 87 88
2 88 89
2 89 90
2 90 91
2 91 92
2 92 93
2 93 94
2 94 95
2 95 96
2 96 97
2 97 98
2 98 99
2 99 100
2 100 101
2 101 102
2 102 103
2 103 104
2 104 105
2 105 106
2 106 107
2 107 108
2 108 109
2 109 110
2 110 111
2 111 112
2 112 113
2 113 114
2 114 115
2 115 116
2 116 117
2 117 118
2 118 119
2 119 120
2 120 121
2 121 122
2 122 123
2 123 124
2 124 125
2 125 126
2 126 127
2 127 128
2 128 129
2 129 130
2 130 131
2 131 132
2 132 133
2 133 134
2 134 135
2 135 136
2 136 137
2 137 138
2 138 139
2 139 140
2 140 141
2 141 142
2 142 143
2 143 144
2 144 145
2 145 146
2 146 147
2 147 148
2 148 149
2 149 150
2 150 151
2 151 152
2 152 153
2 153 154
2 154 155
2 155 156
2 156 157
2 157 158
2 158 159
2 159 160
2 160 161
2 161 162
2 162 163
2 163 164
2 164 165
2 165 166
2 166 167
2 167 168
2 168 169
2 169 170
2 170 171
2 171 172
2 172 173
2 173 174
2 174 175
2 175 176
2 176 177
2 177 178
2 178 179
2 179 180
2 180 181
2 181 182
2 182 183
2 183 184
2 184 185
2 185 186
2 186 187
2 187 188
2 188 189
2 189 190
2 190 191
2 191 192
2 192 193
2 193 194
2 194 195
2 195 196
2 196 197
2 197 198
2 198 199
2 199 200
2 200 201
2 201 202
2 202 203
2 203 204
2 204 205
2 205 206
2 206 207
2 207 208
2 208 209
2 209 210
2 210 211
2 211 212
2 212 213
2 213 214
2 214 215
2 215 216
2 216 217
2 217 218
2 218 219
2 219 220
2 220 221
2 221 222
2 222 223
2 223 224
2 224 225
2 225 226
2 226 227
2 227 228
2 228 229
2 229 230
2 230 231
2 231 232
2 232 233
2 233 234
2 234 235
2 235 236
2 236 237
2 237 238
2 238 239
2 239 240
2 240 241
2 241 242
2 242 243
2 243 244
2 244 245
2 245 246
2 246 247
2 247 248
2 248 249
2 249 250
2 250 251
2 251 252
2 252 253
2 253 254
2 254 255
2 255 256
2 256 257
2 257 258
2 258 259
2 259 260
2 260 261
2 261 262
2 262 263
2 263 264
2 264 265
2 265 266
2 266 267
2 267 268
2 268 269
2 269 270
2 270 271
2 271 272
2 272 273
2 273 274
2 274 275
2 275 276
2 276 277
2 277 278
2 278 279
2 279 280
2 280 281
2 281 282
2 282 283
2 283 284
2 284 285
2 285 286
2 286 287
2 287 288
2 288 289
2 289 290
2 290 291
2 291 292
2 292 293
2 293 294
2 294 295
2 295 296
2 296 297
2 297 298
2 298 299
2 299 300
2 300 301
2 301 302
2 302 303
2 303 304
2 304 305
2 305 306
2 306 307
2 307 308
2 308 309
2 309 310
2 310 311
2 311 312
2 312 313
2 313 314
2 314 315
2 315 316
2 316 317
2 317 318
2 318 319
2 319 320
2 320 321
2 321 322
2 322 323
2 323 324
2 324 325
2 325 326
2 326 327
2 327 328
2 328 329
2 329 330
2 330 331
2 331 332
2 332 333
2 333 334
2 334 335
2 335 336
2 336 337
2 337 338
2 338 339
2 339 340
2 340 341
2 341 342
2 342 343
2 343 344
2 344 345
2 345 346
2 346 347
2 347 348
2 348 349


POINT_DATA 350
SCALARS a FLOAT 1
LOOKUP_TABLE default
0.0005894628
0.0005894628
0.0005894628
0.0005894628
0.0005894628
0.0005894628
0.0005894628
0.0005894628
0.0005894628
0.0005894628
0.0005894628
0.0005894628
0.0005894628
0.0005894628
0.0005894628
0.0005894628
0.0005894628
0.0005894628
0.0005894628
0.0005894628
0.0005894628
0.0005894628
0.0005894628
0.0005894628
0.0005894628
0.0005894628
0.0005894628
0.0005894628
0.0005894628
0.0005894628
0.0005894628
0.0005894628
0.0005894628
0.0005894628
0.0005894628
0.0005894628
0.0005894628
0.0005894628
0.0005894628
0.0005894628
0.0005894628
0.0005894628
0.0005894628
0.0005894628
0.0005894628
0.0005894628
0.0005894628
0.0005894628
0.0005894628
0.0005894628
0.0005894628
0.0005894628
0.0005894628
0.0005894628
0.0005894628
0.0005894628
0.0005894628
0.0005894628
0.0005894628
0.0005894628
0.0005894628
0.0005894628
0.0005894628
0.0005894628
0.0005894628
0.0005894628
0.0005894628
0.0005894628
0.0005894628
0.0005894628
0.0005894628
0.0005894628
0.0005894628
0.0005894628
0.0005894628
0.0005894628
0.0005894628
0.0005894628
0.0005894628
0.0005894628
0.0005894628
0.0005894628
0.0005894628
0.0005894628
0.0005894628
0.0005894628
0.0005894628
0.0005894628
0.0005894628
0.0005894628
0.0005894628
0.0005894628
0.0005894628
0.0005894628
0.0005894628
0.0005894628
0.0005894628
0.0005894628
0.0005894628
0.0005894628
0.0005894628
0.0005894628
0.0005894628
0.0005894628
0.0005894628
0.0005894628
0.0005894628
0.0005894628
0.0005894628
0.0005894628
0.0005894628
0.0005894628
0.0005894628
0.0005894628
0.0005894628
0.0005894628
0.0005894628
0.0005894628
0.0005894628
0.0005894628
0.0005894628
0.0005894628
0.0005894628
0.0005894628
0.0005894628
0.0005894628
0.0005894628
0.0005894628
0.0005894628
0.0005894628
0.0005894628
0.0005894628
0.0005894628
0.0005894628
0.0005894628
0.0005894628
0.0005894628
0.0005894628
0.0005894628
0.0005894628
0.0005894628
0.0005894628
0.0005894628
0.0005894628
0.0005894628
0.0005894628
0.0005894628
0.0005894628
0.0005894628
0.0005894628
0.0005894628
0.0005894628
0.0005894628
0.0005894628
0.0005894628
0.0005894628
0.0005894628
0.0005894628
0.0005894628
0.0005894628
0.0005894628
0.0005894628
0.0005894628
0.0005894628
0.0005894628
0.0005894628
0.0005894628
0.0005894628
0.0005894628
0.0005894628
0.0005894628
0.0005894628
0.0005894628
0.0005894628
0.0005894628
0.0005894628
0.0005894628
0.0005894628
0.0005894628
0.0005894628
0.0005894628
0.0005894628
0.0005894628
0.0005894628
0.0005894628
0.0005894628
0.0005894628
0.0005894628
0.0005894628
0.0005894628
0.0005894628
0.0005894628
0.0005894628
0.0005894628
0.0005894628
0.0005894628
0.0005894628
0.0005894628
0.0005894628
0.0005894628
0.0005894628
0.0005894628
0.0005894628
0.0005894628
0.0005894628
0.0005894628
0.0005894628
0.0005894628
0.0005894628
0.0005894628
0.0005894628
0.0005894628
0.0005894628
0.0005894628
0.0005894628
0.0005894628
0.0005894628
0.0005894628
0.0005894628
0.0005894628
0.0005894628
0.0005894628
0.0005894628
0.0005894628
0.0005894628
0.0005894628
0.0005894628
0.0005894628
0.0005894628
0.0005894628
0.0005894628
0.0005894628
0.0005894628
0.0005894628
0.0005894628
0.0005894628
0.0005894628
0.0005894628
0.0005894628
0.0005894628
0.0005894628
0.0005894628
0.0005894628
0.0005894628
0.0005894628
0.0005894628
0.0005894628
0.0005894628
0.0005894628
0.0005894628
0.0005894628
0.0005894628
0.0005894628
0.0005894628
0.0005894628
0.0005894628
0.0005894628
0.0005894628
0.0005894628
0.0005894628
0.0005894628
0.0005894628
0.0005894628
0.0005894628
0.0005894628
0.0005894628
0.0005894628
0.0005894628
0.0005894628
0.0005894628
0.0005894628
0.0005894628
0.0005894628
0.0005894628
0.0005894628
0.0005894628
0.0005894628
0.0005894628
0.0005894628
0.0005894628
0.0005894628
0.0005894628
0.0005894628
0.0005894628
0.0005894628
0.0005894628
0.0005894628
0.0005894628
0.0005894628
0.0005894628
0.0005894628
0.0005894628
0.0005894628
0.0005894628
0.0005894628
0.0005894628
0.0005894628
0.0005894628
0.0005894628
0.0005894628
0.0005894628
0.0005894628
0.0005894628
0.0005894628
0.0005894628
0.0005894628
0.0005894628
0.0005894628
0.0005894628
0.0005894628
0.0005894628
0.0005894628
0.0005894628
0.0005894628
0.0005894628
0.0005894628
0.0005894628
0.0005894628
0.0005894628
0.0005894628
0.0005894628
0.0005894628
0.0005894628
0.0005894628
0.0005894628
0.0005894628
0.0005894628
0.0005894628
0.0005894628
0.0005894628
0.0005894628
0.0005894628
0.0005894628
0.0005894628
0.0005894628
0.0005894628
0.0005894628
0.0005894628
0.0005894628
0.0005894628
0.0005894628
0.0005894628
0.0005894628
0.0005894628
0.0005894628
0.0005894628
0.0005894628
0.0005894628
0.0005894628
0.0005894628


SCALARS b FLOAT 1
LOOKUP_TABLE default
0.02357851
0.02357851
0.02357851
0.02357851
0.02357851
0.02357851
0.02357851
0.02357851
0.02357851
0.02357851
0.02357851
0.02357851
0.02357851
0.02357851
0.02357851
0.02357851
0.02357851
0.02357851
0.02357851
0.02357851
0.02357851
0.02357851
0.02357851
0.02357851
0.02357851
0.02357851
0.02357851
0.02357851
0.02357851
0.02357851
0.02357851
0.02357851
0.02357851
0.02357851
0.02357851
0.02357851
0.02357851
0.02357851
0.02357851
0.02357851
0.02357851
0.02357851
0.02357851
0.02357851
0.02357851
0.02357851
0.02357851
0.02357851
0.02357851
0.02357851
0.02357851
0.02357851
0.02357851
0.02357851
0.02357851
0.02357851
0.02357851
0.02357851
0.02357851
0.02357851
0.02357851
0.02357851
0.02357851
0.02357851
0.02357851
0.02357851
0.02357851
0.02357851
0.02357851
0.02357851
0.02357851
0.02357851
0.02357851
0.02357851
0.02357851
0.02357851
0.02357851
0.02357851
0.02357851
0.02357851
0.02357851
0.02357851
0.02357851
0.02357851
0.02357851
0.02357851
0.02357851
0.02357851
0.02357851
0.02357851
0.02357851
0.02357851
0.02357851
0.02357851
0.02357851
0.02357851
0.02357851
0.02357851
0.02357851
0.02357851
0.02357851
0.02357851
0.02357851
0.02357851
0.02357851
0.02357851
0.02357851
0.02357851
0.02357851
0.02357851
0.02357851
0.02357851
0.02357851
0.02357851
0.02357851
0.02357851
0.02357851
0.02357851
0.02357851
0.02357851
0.02357851
0.02357851
0.02357851
0.02357851
0.02357851
0.02357851
0.02357851
0.02357851
0.02357851
0.02357851
0.02357851
0.02357851
0.02357851
0.02357851
0.02357851
0.02357851
0.02357851
0.02357851
0.02357851
0.02357851
0.02357851
0.02357851
0.02357851
0.02357851
0.02357851
0.02357851
0.02357851
0.02357851
0.02357851
0.02357851
0.02357851
0.02357851
0.02357851
0.02357851
0.02357851
0.02357851
0.02357851
0.02357851
0.02357851
0.02357851
0.02357851
0.02357851
0.02357851
0.02357851
0.02357851
0.02357851
0.02357851
0.02357851
0.02357851
0.02357851
0.02357851
0.02357851
0.02357851
0.02357851
0.02357851
0.02357851
0.02357851
0.02357851
0.02357851
0.02357851
0.02357851
0.02357851
0.02357851
0.02357851
0.02357851
0.02357851
0.02357851
0.02357851
0.02357851
0.02357851
0.02357851
0.02357851
0.02357851
0.02357851
0.02357851
0.02357851
0.02357851
0.02357851
0.02357851
0.02357851
0.02357851
0.02357851
0.02357851
0.02357851
0.02357851
0.02357851
0.02357851
0.02357851
0.02357851
0.02357851
0.02357851
0.02357851
0.02357851
0.02357851
0.02357851
0.02357851
0.02357851
0.02357851
0.02357851
0.02357851
0.02357851
0.02357851
0.02357851
0.02357851
0.02357851
0.02357851
0.02357851
0.02357851
0.02357851
0.02357851
0.02357851
0.02357851
0.02357851
0.02357851
0.02357851
0.02357851
0.02357851
0.02357851
0.02357851
0.02357851
0.02357851
0.02357851
0.02357851
0.02357851
0.02357851
0.02357851
0.02357851
0.02357851
0.02357851
0.02357851
0.02357851
0.02357851
0.02357851
0.02357851
0.02357851
0.02357851
0.02357851
0.02357851
0.02357851
0.02357851
0.02357851
0.02357851
0.02357851
0.02357851
0.02357851
0.02357851
0.02357851
0.02357851
0.02357851
0.02357851
0.02357851
0.02357851
0.02357851
0.02357851
0.02357851
0.02357851
0.02357851
0.02357851
0.02357851
0.02357851
0.02357851
0.02357851
0.02357851
0.02357851
0.02357851
0.02357851
0.02357851
0.02357851
0.02357851
0.02357851
0.02357851
0.02357851
0.02357851
0.02357851
0.02357851
0.02357851
0.02357851
0.02357851
0.02357851
0.02357851
0.02357851
0.02357851
0.02357851
0.02357851
0.02357851
0.02357851
0.02357851
0.02357851
0.02357851
0.02357851
0.02357851
0.02357851
0.02357851
0.02357851
0.02357851
0.02357851
0.02357851
0.02357851
0.02357851
0.02357851
0.02357851
0.02357851
0.02357851
0.02357851
0.02357851
0.02357851
0.02357851
0.02357851
0.02357851
0.02357851
0.02357851
0.02357851
0.02357851
0.02357851
0.02357851
0.02357851
0.02357851
0.02357851
0.02357851
0.02357851
0.02357851
0.02357851
0.02357851
0.02357851
0.02357851
0.02357851
0.02357851
0.02357851
0.02357851
0.02357851


VECTORS d1 FLOAT
0 0.0909802 0.9958527
-0.005824185 0.1110864 0.9937937
-0.01255543 0.131186 0.9912783
-0.02012172 0.1512647 0.9882885
-0.02845639 0.171306 0.9848068
-0.03749789 0.1912916 0.9808167
-0.04718934 0.2112018 0.9763027
-0.05747791 0.2310161 0.9712507
-0.06831433 0.2507135 0.9656479
-0.07965235 0.2702722 0.9594834
-0.09144834 0.2896706 0.9527477
-0.1036609 0.3088865 0.945433
-0.1162505 0.3278981 0.9375333
-0.1291794 0.3466836 0.9290442
-0.1424113 0.3652216 0.9199632
-0.1559112 0.3834907 0.9102893
-0.1696451 0.4014704 0.9000234
-0.1835805 0.4191403 0.8891679
-0.1976855 0.436481 0.8777271
-0.2119294 0.4534733 0.8657066
-0.2262824 0.4700992 0.8531137
-0.2407155 0.4863413 0.8399573
-0.2552006 0.5021829 0.8262475
-0.2697107 0.5176084 0.8119961
-0.2842193 0.5326032 0.7972159
-0.298701 0.5471535 0.7819212
-0.3131314 0.5612466 0.7661273
-0.3274868 0.5748709 0.7498505
-0.3417445 0.5880159 0.7331085
-0.3558828 0.600672 0.7159194
-0.3698808 0.612831 0.6983025
-0.3837188 0.6244855 0.6802777
-0.3973779 0.6356295 0.6618655
-0.4108403 0.6462578 0.6430872
-0.424089 0.6563666 0.6239643
-0.4371083 0.6659529 0.6045188
-0.4498833 0.6750151 0.5847731
-0.4624001 0.6835524 0.5647497
-0.4746461 0.691565 0.5444713
-0.4866092 0.6990542 0.5239606
-0.4982789 0.7060222 0.5032403
-0.5096451 0.7124722 0.482333
-0.5206992 0.7184082 0.4612613
-0.5314332 0.7238349 0.4400474
-0.5418402 0.7287581 0.4187133
-0.5519141 0.7331842 0.3972805
-0.5616499 0.7371201 0.3757704
-0.5710432 0.7405737 0.3542036
-0.5800908 0.7435533 0.3326006
-0.58879 0.7460678 0.3109809
-0.5971391 0.7481266 0.289364
-0.6051369 0.7497396 0.2677683
-0.6127833 0.7509171 0.2462118
-0.6200785 0.7516697 0.2247118
-0.6270236 0.7520084 0.2032851
-0.6336203 0.7519445 0.1819474
-0.6398708 0.7514894 0.1607142
-0.6457779 0.7506549 0.1396
-0.651345 0.7494527 0.1186185
-0.6565758 0.7478948 0.09778297
-0.6614747 0.7459933 0.07710578
-0.6660462 0.7437601 0.05659862
-0.6702954 0.7412074 0.03627248
-0.6742278 0.7383471 0.01613766
-0.677849 0.7351914 -0.003796255
-0.6811651 0.731752 -0.02352033
-0.6841823 0.7280407 -0.0430263
-0.6869072 0.7240693 -0.06230655
-0.6893465 0.7198492 -0.08135411
-0.691507 0.7153919 -0.1001626
-0.6933958 0.7107083 -0.1187262
-0.6950201 0.7058095 -0.1370399
-0.6963872 0.7007063 -0.1550988
-0.6975043 0.695409 -0.1728989
-0.698379 0.689928 -0.1904366
-0.6990187 0.6842732 -0.2077089
-0.699431 0.6784544 -0.224713
-0.6996232 0.6724811 -0.2414468
-0.699603 0.6663624 -0.2579085
-0.6993778 0.6601072 -0.2740969
-0.6989552 0.6537243 -0.2900108
-0.6983424 0.6472219 -0.3056498
-0.6975469 0.6406081 -0.3210135
-0.6965759 0.6338907 -0.336102
-0.6954368 0.6270772 -0.3509157
-0.6941365 0.6201749 -0.3654553
-0.6926823 0.6131906 -0.3797217
-0.6910809 0.6061311 -0.393716
-0.6893394 0.5990026 -0.4074397
-0.6874643 0.5918115 -0.4208943
-0.6854624 0.5845634 -0.4340817
-0.6833401 0.5772641 -0.4470039
-0.6811038 0.5699188 -0.4596631
-0.6787598 0.5625327 -0.4720616
-0.6763142 0.5551106 -0.4842018
-0.6737731 0.547657 -0.4960863
-0.6711422 0.5401765 -0.5077179
-0.6684274 0.5326732 -0.5190993
-0.6656343 0.525151 -0.5302334
-0.6627683 0.5176136 -0.5411233
-0.6598348 0.5100645 -0.5517719
-0.656839 0.5025071 -0.5621825
-0.6537861 0.4949445 -0.572358
-0.650681 0.4873796 -0.5823019
-0.6475284 0.4798152 -0.5920172
-0.6443332 0.4722538 -0.6015073
-0.6410999 0.464698 -0.6107754
-0.637833 0.4571499 -0.619825
-0.6345368 0.4496117 -0.6286592
-0.6312155 0.4420852 -0.6372815
-0.6278732 0.4345724 -0.645695
-0.6245139 0.4270748 -0.6539032
-0.6211415 0.4195941 -0.6619094
-0.6177597 0.4121315 -0.6697168
-0.6143722 0.4046885 -0.6773286
-0.6109824 0.3972662 -0.6847482
-0.6075939 0.3898656 -0.6919787
-0.6042099 0.3824877 -0.6990233
-0.6008337 0.3751334 -0.7058851
-0.5974684 0.3678034 -0.7125673
-0.5941171 0.3604984 -0.7190729
-0.5907826 0.3532189 -0.7254049
-0.5874679 0.3459655 -0.7315664
-0.5841756 0.3387386 -0.7375602
-0.5809085 0.3315385 -0.7433892
-0.5776691 0.3243655 -0.7490564
-0.5744599 0.3172198 -0.7545644
-0.5712834 0.3101015 -0.759916
-0.5681418 0.3030107 -0.7651139
-0.5650376 0.2959475 -0.7701608
-0.5619727 0.2889117 -0.7750592
-0.5589494 0.2819033 -0.7798116
-0.5559697 0.2749221 -0.7844205
-0.5530356 0.2679681 -0.7888883
-0.5501489 0.2610408 -0.7932174
-0.5473116 0.2541402 -0.79741
-0.5445254 0.2472658 -0.8014685
-0.541792 0.2404173 -0.8053949
-0.539113 0.2335943 -0.8091915
-0.5364901 0.2267965 -0.8128602
-0.5339248 0.2200233 -0.8164031
-0.5314186 0.2132744 -0.8198221
-0.5289728 0.2065492 -0.8231192
-0.526589 0.1998472 -0.826296
-0.5242683 0.1931678 -0.8293545
-0.522012 0.1865106 -0.8322964
-0.5198215 0.1798748 -0.8351232
-0.5176977 0.1732599 -0.8378366
-0.5156419 0.1666653 -0.8404381
-0.513655 0.1600903 -0.8429292
-0.5117382 0.1535343 -0.8453113
-0.5098924 0.1469966 -0.8475858
-0.5081185 0.1404765 -0.8497541
-0.5064174 0.1339733 -0.8518172
-0.5047899 0.1274864 -0.8537765
-0.5032369 0.121015 -0.8556331
-0.5017591 0.1145583 -0.857388
-0.5003572 0.1081157 -0.8590423
-0.4990319 0.1016864 -0.8605969
-0.4977838 0.09526967 -0.8620528
-0.4966135 0.08886473 -0.8634107
-0.4955215 0.08247083 -0.8646716
-0.4945084 0.07608719 -0.8658361
-0.4935747 0.06971306 -0.8669049
-0.4927206 0.06334765 -0.8678787
-0.4919468 0.05699018 -0.868758
-0.4912534 0.05063987 -0.8695434
-0.4906409 0.04429593 -0.8702352
-0.4901095 0.03795756 -0.870834
-0.4896594 0.03162398 -0.8713401
-0.4892909 0.02529439 -0.8717537
-0.4890041 0.018968 -0.8720752
-0.4887992 0.012644 -0.8723047
-0.4886762 0.006321599 -0.8724423
-0.4886352 -3.512135e-12 -0.8724882
-0.4886762 -0.006321599 -0.8724423
-0.4887992 -0.012644 -0.8723047
-0.4890041 -0.018968 -0.8720752
-0.4892909 -0.02529439 -0.8717537
-0.4896594 -0.03162398 -0.8713401
-0.4901095 -0.03795756 -0.870834
-0.4906409 -0.04429593 -0.8702352
-0.4912534 -0.05063987 -0.8695434
-0.4919468 -0.05699018 -0.868758
-0.4927206 -0.06334765 -0.8678787
-0.4935747 -0.06971306 -0.8669049
-0.4945084 -0.07608719 -0.8658361
-0.4955215 -0.08247083 -0.8646716
-0.4966135 -0.08886473 -0.8634107
-0.4977838 -0.09526967 -0.8620528
-0.4990319 -0.1016864 -0.8605969
-0.5003572 -0.1081157 -0.8590423
-0.5017591 -0.1145583 -0.857388
-0.5032369 -0.121015 -0.8556331
-0.5047899 -0.1274864 -0.8537765
-0.5064174 -0.1339733 -0.8518172
-0.5081185 -0.1404765 -0.8497541
-0.5098924 -0.1469966 -0.8475858
-0.5117382 -0.1535343 -0.8453113
-0.513655 -0.1600903 -0.8429292
-0.5156419 -0.1666653 -0.8404381
-0.5176977 -0.1732599 -0.8378366
-0.5198215 -0.1798748 -0.8351232
-0.522012 -0.1865106 -0.8322964
-0.5242683 -0.1931678 -0.8293545
-0.526589 -0.1998472 -0.826296
-0.5289728 -0.2065492 -0.8231192
-0.5314186 -0.2132744 -0.8198221
-0.5339248 -0.2200233 -0.8164031
-0.5364901 -0.2267965 -0.8128602
-0.539113 -0.2335943 -0.8091915
-0.541792 -0.2404173 -0.8053949
-0.5445254 -0.2472658 -0.8014685
-0.5473116 -0.2541402 -0.79741
-0.5501489 -0.2610408 -0.7932174
-0.5530356 -0.2679681 -0.7888883
-0.5559697 -0.2749221 -0.7844205
-0.5589494 -0.2819033 -0.7798116
-0.5619727 -0.2889117 -0.7750592
-0.5650376 -0.2959475 -0.7701608
-0.5681418 -0.3030107 -0.7651139
-0.5712834 -0.3101015 -0.759916
-0.5744599 -0.3172198 -0.7545644
-0.5776691 -0.3243655 -0.7490564
-0.5809085 -0.3315385 -0.7433892
-0.5841756 -0.3387386 -0.7375602
-0.5874679 -0.3459655 -0.7315664
-0.5907826 -0.3532189 -0.7254049