# vtk DataFile Version 2.0
Written badly by Kevin Korner
ASCII
DATASET POLYDATA
POINTS 350 FLOAT
0 0 0
0.00286533 0 0
0.005730533 6.877686e-06 2.593866e-05
0.008595338 2.14237e-05 7.880545e-05
0.01145944 4.444838e-05 0.0001595083
0.0143225 7.677854e-05 0.0002688756
0.01718415 0.0001192544 0.0004076583
0.020044 0.0001727266 0.0005765318
0.02290162 0.0002380535 0.0007760977
0.02575658 0.0003160981 0.001006885
0.02860839 0.0004077258 0.001269354
0.03145656 0.0005138014 0.001563895
0.03430059 0.0006351872 0.001890831
0.03713994 0.0007727399 0.002250421
0.03997405 0.0009273093 0.00264286
0.04280237 0.001099735 0.00306828
0.04562432 0.001290845 0.003526754
0.04843931 0.001501455 0.004018297
0.05124673 0.001732363 0.004542865
0.05404598 0.001984351 0.005100361
0.05683645 0.002258182 0.005690634
0.05961751 0.002554598 0.006313482
0.06238855 0.002874321 0.006968654
0.06514893 0.003218046 0.007655849
0.06789805 0.003586448 0.008374724
0.07063526 0.003980173 0.009124889
0.07335996 0.004399843 0.009905916
0.07607153 0.004846049 0.01071733
0.07876936 0.005319358 0.01155863
0.08145286 0.005820304 0.01242928
0.08412143 0.006349395 0.01332868
0.08677448 0.006907107 0.01425625
0.08941145 0.007493885 0.01521133
0.09203178 0.008110145 0.01619327
0.09463492 0.008756272 0.01720138
0.09722035 0.009432619 0.01823494
0.09978754 0.01013951 0.01929322
0.102336 0.01087723 0.02037547
0.1048652 0.01164605 0.02148091
0.1073748 0.01244619 0.02260877
0.1098642 0.01327786 0.02375823
0.112333 0.01414123 0.0249285
0.1147809 0.01503644 0.02611875
0.1172074 0.01596359 0.02732815
0.1196121 0.01692278 0.02855588
0.1219947 0.01791407 0.02980108
0.1243549 0.01893747 0.03106291
0.1266924 0.01999301 0.03234054
0.1290068 0.02108064 0.03363312
0.1312978 0.02220034 0.0349398
0.1335653 0.02335202 0.03625975
0.135809 0.0245356 0.03759213
0.1380286 0.02575095 0.03893611
0.140224 0.02699795 0.04029086
0.142395 0.02827644 0.04165556
0.1445414 0.02958624 0.04302941
0.1466631 0.03092715 0.04441161
0.14876 0.03229897 0.04580136
0.1508319 0.03370146 0.04719789
0.1528788 0.03513437 0.04860043
0.1549005 0.03659746 0.05000822
0.1568972 0.03809044 0.05142052
0.1588686 0.03961303 0.0528366
0.1608148 0.04116493 0.05425575
0.1627358 0.04274583 0.05567727
0.1646316 0.0443554 0.05710047
0.1665021 0.04599332 0.05852468
0.1683475 0.04765925 0.05994924
0.1701677 0.04935283 0.06137352
0.1719629 0.05107372 0.06279688
0.1737331 0.05282154 0.06421874
0.1754784 0.05459594 0.06563848
0.1771988 0.05639654 0.06705554
0.1788945 0.05822297 0.06846935
0.1805656 0.06007483 0.06987938
0.1822122 0.06195174 0.07128509
0.1838344 0.06385332 0.07268598
0.1854324 0.06577918 0.07408155
0.1870063 0.06772893 0.07547131
0.1885563 0.06970217 0.07685481
0.1900825 0.0716985 0.07823159
0.191585 0.07371754 0.07960123
0.1930641 0.0757589 0.0809633
0.19452 0.07782217 0.0823174
0.1959527 0.07990697 0.08366314
0.1973625 0.0820129 0.08500014
0.1987496 0.08413958 0.08632806
0.2001141 0.08628663 0.08764653
0.2014563 0.08845365 0.08895522
0.2027763 0.09064026 0.09025382
0.2040744 0.09284609 0.09154201
0.2053507 0.09507076 0.09281951
0.2066054 0.0973139 0.09408602
0.2078388 0.09957514 0.09534127
0.2090511 0.1018541 0.09658501
0.2102424 0.1041504 0.09781699
0.2114129 0.1064638 0.09903696
0.2125629 0.1087938 0.1002447
0.2136926 0.1111401 0.10144
0.2148021 0.1135024 0.1026226
0.2158917 0.1158803 0.1037924
0.2169616 0.1182736 0.1049492
0.2180119 0.1206817 0.1060927
0.2190429 0.1231045 0.1072228
0.2200548 0.1255416 0.1083394
0.2210478 0.1279927 0.1094423
0.222022 0.1304575 0.1105313
0.2229777 0.1329356 0.1116063
0.2239151 0.1354268 0.1126671
0.2248343 0.1379307 0.1137137
0.2257355 0.1404472 0.1147459
0.226619 0.1429758 0.1157637
0.2274848 0.1455163 0.1167668
0.2283332 0.1480684 0.1177552
0.2291644 0.1506319 0.1187288
0.2299786 0.1532064 0.1196875
0.2307758 0.1557917 0.1206313
0.2315564 0.1583875 0.12156
0.2323204 0.1609937 0.1224735
0.233068 0.1636098 0.1233718
0.2337993 0.1662357 0.1242549
0.2345147 0.1688712 0.1251226
0.2352141 0.1715159 0.1259749
0.2358977 0.1741696 0.1268117
0.2365658 0.1768322 0.127633
0.2372184 0.1795034 0.1284387
0.2378557 0.1821828 0.1292289
0.2384778 0.1848705 0.1300033
0.2390848 0.187566 0.1307621
0.239677 0.1902692 0.1315051
0.2402544 0.1929799 0.1322323
0.2408172 0.1956979 0.1329437
0.2413655 0.1984229 0.1336392
0.2418993 0.2011548 0.1343189
0.2424189 0.2038933 0.1349827
0.2429244 0.2066383 0.1356305
0.2434157 0.2093895 0.1362623
0.2438932 0.2121469 0.1368782
0.2443568 0.2149101 0.1374781
0.2448067 0.217679 0.1380619
0.245243 0.2204534 0.1386296
0.2456657 0.2232332 0.1391813
0.246075 0.2260181 0.139717
0.246471 0.228808 0.1402365
0.2468537 0.2316026 0.1407399
0.2472233 0.2344019 0.1412271
0.2475797 0.2372057 0.1416983
0.2479232 0.2400138 0.1421532
0.2482537 0.2428259 0.142592
0.2485714 0.2456421 0.1430146
0.2488763 0.248462 0.1434211
0.2491684 0.2512855 0.1438113
0.2494479 0.2541126 0.1441853
0.2497149 0.2569429 0.1445431
0.2499692 0.2597764 0.1448847
0.2502111 0.2626129 0.1452101
0.2504406 0.2654523 0.1455192
0.2506577 0.2682943 0.1458121
0.2508625 0.2711389 0.1460888
0.251055 0.2739859 0.1463492
0.2512353 0.2768351 0.1465933
0.2514034 0.2796864 0.1468212
0.2515593 0.2825396 0.1470328
0.2517031 0.2853947 0.1472282
0.2518348 0.2882514 0.1474073
0.2519544 0.2911095 0.1475701
0.252062 0.2939691 0.1477167
0.2521576 0.2968299 0.1478469
0.2522412 0.2996917 0.1479609
0.2523128 0.3025545 0.1480586
0.2523724 0.305418 0.14814
0.2524202 0.3082822 0.1482052
0.2524559 0.3111469 0.148254
0.2524798 0.314012 0.1482866
0.2524917 0.3168772 0.1483029
0.2524917 0.3197426 0.1483029
0.2524798 0.3226078 0.1482866
0.2524559 0.3254729 0.148254
0.2524202 0.3283375 0.1482052
0.2523724 0.3312017 0.14814
0.2523128 0.3340653 0.1480586
0.2522412 0.3369281 0.1479609
0.2521576 0.3397899 0.1478469
0.252062 0.3426507 0.1477167
0.2519544 0.3455102 0.1475701
0.2518348 0.3483684 0.1474073
0.2517031 0.3512251 0.1472282
0.2515593 0.3540802 0.1470328
0.2514034 0.3569334 0.1468212
0.2512353 0.3597847 0.1465933
0.251055 0.3626339 0.1463492
0.2508625 0.3654809 0.1460888
0.2506577 0.3683255 0.1458121
0.2504406 0.3711675 0.1455192
0.2502111 0.3740069 0.1452101
0.2499692 0.3768434 0.1448847
0.2497149 0.3796769 0.1445431
0.2494479 0.3825072 0.1441853
0.2491684 0.3853342 0.1438113
0.2488763 0.3881578 0.1434211
0.2485714 0.3909777 0.1430146
0.2482537 0.3937938 0.142592
0.2479232 0.396606 0.1421532
0.2475797 0.3994141 0.1416983
0.2472233 0.4022178 0.1412271
0.2468537 0.4050171 0.1407399
0.246471 0.4078118 0.1402365
0.246075 0.4106017 0.139717
0.2456657 0.4133866 0.1391813
0.245243 0.4161664 0.1386296
0.2448067 0.4189408 0.1380619
0.2443568 0.4217097 0.1374781
0.2438932 0.4244729 0.1368782
0.2434157 0.4272302 0.1362623
0.2429244 0.4299815 0.1356305
0.2424189 0.4327265 0.1349827
0.2418993 0.435465 0.1343189
0.2413655 0.4381969 0.1336392
0.2408172 0.4409219 0.1329437
0.2402544 0.4436399 0.1322323
0.239677 0.4463506 0.1315051
0.2390848 0.4490538 0.1307621
0.2384778 0.4517493 0.1300033
0.2378557 0.4544369 0.1292289
0.2372184 0.4571164 0.1284387
0.2365658 0.4597876 0.127633
0.2358977 0.4624501 0.1268117
0.2352141 0.4651039 0.1259749
0.2345147 0.4677486 0.1251226
0.2337993 0.4703841 0.1242549
0.233068 0.47301 0.1233718
0.2323204 0.4756261 0.1224735
0.2315564 0.4782322 0.12156
0.2307758 0.4808281 0.1206313
0.2299786 0.4834134 0.1196875
0.2291644 0.4859879 0.1187288
0.2283332 0.4885514 0.1177552
0.2274848 0.4911035 0.1167668
0.226619 0.493644 0.1157637
0.2257355 0.4961726 0.1147459
0.2248343 0.498689 0.1137137
0.2239151 0.501193 0.1126671
0.2229777 0.5036842 0.1116063
0.222022 0.5061623 0.1105313
0.2210478 0.5086271 0.1094423
0.2200548 0.5110782 0.1083394
0.2190429 0.5135153 0.1072228
0.2180119 0.5159381 0.1060927
0.2169616 0.5183462 0.1049492
0.2158917 0.5207394 0.1037924
0.2148021 0.5231173 0.1026226
0.2136926 0.5254796 0.10144
0.2125629 0.527826 0.1002447
0.2114129 0.530156 0.09903696
0.2102424 0.5324693 0.09781699
0.2090511 0.5347657 0.09658501
0.2078388 0.5370446 0.09534127
0.2066054 0.5393059 0.09408602
0.2053507 0.541549 0.09281951
0.2040744 0.5437737 0.09154201
0.2027763 0.5459795 0.09025382
0.2014563 0.5481661 0.08895522
0.2001141 0.5503331 0.08764653
0.1987496 0.5524802 0.08632806
0.1973625 0.5546069 0.08500014
0.1959527 0.5567128 0.08366314
0.19452 0.5587976 0.0823174
0.1930641 0.5608609 0.0809633
0.191585 0.5629022 0.07960123
0.1900825 0.5649213 0.07823159
0.1885563 0.5669176 0.07685481
0.1870063 0.5688908 0.07547131
0.1854324 0.5708406 0.07408155
0.1838344 0.5727664 0.07268598
0.1822122 0.574668 0.07128509
0.1805656 0.5765449 0.06987938
0.1788945 0.5783968 0.06846935
0.1771988 0.5802232 0.06705554
0.1754784 0.5820238 0.06563848
0.1737331 0.5837982 0.06421874
0.1719629 0.5855461 0.06279688
0.1701677 0.5872669 0.06137352
0.1683475 0.5889605 0.05994924
0.1665021 0.5906265 0.05852468
0.1646316 0.5922644 0.05710047
0.1627358 0.5938739 0.05567727
0.1608148 0.5954548 0.05425575
0.1588686 0.5970067 0.0528366
0.1568972 0.5985293 0.05142052
0.1549005 0.6000223 0.05000822
0.1528788 0.6014854 0.04860043
0.1508319 0.6029183 0.04719789
0.14876 0.6043208 0.04580136
0.1466631 0.6056926 0.04441161
0.1445414 0.6070335 0.04302941
0.142395 0.6083433 0.04165556
0.140224 0.6096218 0.04029086
0.1380286 0.6108688 0.03893611
0.135809 0.6120842 0.03759213
0.1335653 0.6132678 0.03625975
0.1312978 0.6144194 0.0349398
0.1290068 0.6155391 0.03363312
0.1266924 0.6166268 0.03234054
0.1243549 0.6176823 0.03106291
0.1219947 0.6187057 0.02980108
0.1196121 0.619697 0.02855588
0.1172074 0.6206562 0.02732815
0.1147809 0.6215833 0.02611875
0.112333 0.6224785 0.0249285
0.1098642 0.6233419 0.02375823
0.1073748 0.6241736 0.02260877
0.1048652 0.6249737 0.02148091
0.102336 0.6257425 0.02037547
0.09978754 0.6264803 0.01929322
0.09722035 0.6271872 0.01823494
0.09463492 0.6278635 0.01720138
0.09203178 0.6285096 0.01619327
0.08941145 0.6291259 0.01521133
0.08677448 0.6297127 0.01425625
0.08412143 0.6302704 0.01332868
0.08145286 0.6307995 0.01242928
0.07876936 0.6313004 0.01155863
0.07607153 0.6317737 0.01071733
0.07335996 0.6322199 0.009905916
0.07063526 0.6326396 0.009124889
0.06789805 0.6330333 0.008374724
0.06514893 0.6334017 0.007655849
0.06238855 0.6337455 0.006968654
0.05961751 0.6340652 0.006313482
0.05683645 0.6343616 0.005690634
0.05404598 0.6346354 0.005100361
0.05124673 0.6348874 0.004542865
0.04843931 0.6351183 0.004018297
0.04562432 0.6353289 0.003526754
0.04280237 0.63552 0.00306828
0.03997405 0.6356925 0.00264286
0.03713994 0.635847 0.002250421
0.03430059 0.6359846 0.001890831
0.03145656 0.636106 0.001563895
0.02860839 0.636212 0.001269354
0.02575658 0.6363037 0.001006885
0.02290162 0.6363817 0.0007760977
0.020044 0.636447 0.0005765318
0.01718415 0.6365005 0.0004076583
0.0143225 0.636543 0.0002688756
0.01145944 0.6365753 0.0001595083
0.008595338 0.6365983 7.880545e-05
0.005730533 0.6366129 2.593866e-05
0.00286533 0.6366198 0
0 0.6366198 0

LINES 349 1047
2 0 1
2 1 2
2 2 3
2 3 4
2 4 5
2 5 6
2 6 7
2 7 8
2 8 9
2 9 10
2 10 11
2 11 12
2 12 13
2 13 14
2 14 15
2 15 16
2 16 17
2 17 18
2 18 19
2 19 20
2 20 21
2 21 22
2 22 23
2 23 24
2 24 25
2 25 26
2 26 27
2 27 28
2 28 29
2 29 30
2 30 31
2 31 32
2 32 33
2 33 34
2 34 35
2 35 36
2 36 37
2 37 38
2 38 39
2 39 40
2 40 41
2 41 42
2 42 43
2 43 44
2 44 45
2 45 46
2 46 47
2 47 48
2 48 49
2 49 50
2 50 51
2 51 52
2 52 53
2 53 54
2 54 55
2 55 56
2 56 57
2 57 58
2 58 59
2 59 60
2 60 61
2 61 62
2 62 63
2 63 64
2 64 65
2 65 66
2 66 67
2 67 68
2 68 69
2 69 70
2 70 71
2 71 72
2 72 73
2 73 74
2 74 75
2 75 76
2 76 77
2 77 78
2 78 79
2 79 80
2 80 81
2 81 82
2 82 83
2 83 84
2 84 85
2 85 86
2 86 87
2 87 88
2 88 89
2 89 90
2 90 91
2 91 92
2 92 93
2 93 94
2 94 95
2 95 96
2 96 97
2 97 98
2 98 99
2 99 100
2 100 101
2 101 102
2 102 103
2 103 104
2 104 105
2 105 106
2 106 107
2 107 108
2 108 109
2 109 110
2 110 111
2 111 112
2 112 113
2 113 114
2 114 115
2 115 116
2 116 117
2 117 118
2 118 119
2 119 120
2 120 121
2 121 122
2 122 123
2 123 124
2 124 125
2 125 126
2 126 127
2 127 128
2 128 129
2 129 130
2 130 131
2 131 132
2 132 133
2 133 134
2 134 135
2 135 136
2 136 137
2 137 138
2 138 139
2 139 140
2 140 141
2 141 142
2 142 143
2 143 144
2 144 145
2 145 146
2 146 147
2 147 148
2 148 149
2 149 150
2 150 151
2 151 152
2 152 153
2 153 154
2 154 155
2 155 156
2 156 157
2 157 158
2 158 159
2 159 160
2 160 161
2 161 162
2 162 163
2 163 164
2 164 165
2 165 166
2 166 167
2 167 168
2 168 169
2 169 170
2 170 171
2 171 172
2 172 173
2 173 174
2 174 175
2 175 176
2 176 177
2 177 178
2 178 179
2 179 180
2 180 181
2 181 182
2 182 183
2 183 184
2 184 185
2 185 186
2 186 187
2 187 188
2 188 189
2 189 190
2 190 191
2 191 192
2 192 193
2 193 194
2 194 195
2 195 196
2 196 197
2 197 198
2 198 199
2 199 200
2 200 201
2 201 202
2 202 203
2 203 204
2 204 205
2 205 206
2 206 207
2 207 208
2 208 209
2 209 210
2 210 211
2 211 212
2 212 213
2 213 214
2 214 215
2 215 216
2 216 217
2 217 218
2 218 219
2 219 220
2 220 221
2 221 222
2 222 223
2 223 224
2 224 225
2 225 226
2 226 227
2 227 228
2 228 229
2 229 230
2 230 231
2 231 232
2 232 233
2 233 234
2 234 235
2 235 236
2 236 237
2 237 238
2 238 239
2 239 240
2 240 241
2 241 242
2 242 243
2 243 244
2 244 245
2 245 246
2 246 247
2 247 248
2 248 249
2 249 250
2 250 251
2 251 252
2 252 253
2 253 254
2 254 255
2 255 256
2 256 257
2 257 258
2 258 259
2 259 260
2 260 261
2 261 262
2 262 263
2 263 264
2 264 265
2 265 266
2 266 267
2 267 268
2 268 269
2 269 270
2 270 271
2 271 272
2 272 273
2 273 274
2 274 275
2 275 276
2 276 277
2 277 278
2 278 279
2 279 280
2 280 281
2 281 282
2 282 283
2 283 284
2 284 285
2 285 286
2 286 287
2 287 288
2 288 289
2 289 290
2 290 291
2 291 292
2 292 293
2 293 294
2 294 295
2 295 296
2 296 297
2 297 298
2 298 299
2 299 300
2 300 301
2 301 302
2 302 303
2 303 304
2 304 305
2 305 306
2 306 307
2 307 308
2 308 309
2 309 310
2 310 311
2 311 312
2 312 313
2 313 314
2 314 315
2 315 316
2 316 317
2 317 318
2 318 319
2 319 320
2 320 321
2 321 322
2 322 323
2 323 324
2 324 325
2 325 326
2 326 327
2 327 328
2 328 329
2 329 330
2 330 331
2 331 332
2 332 333
2 333 334
2 334 335
2 335 336
2 336 337
2 337 338
2 338 339
2 339 340
2 340 341
2 341 342
2 342 343
2 343 344
2 344 345
2 345 346
2 346 347
2 347 348
2 348 349


POINT_DATA 350
SCALARS a FLOAT 1
LOOKUP_TABLE default
0.0005894628
0.0005894628
0.0005894628
0.0005894628
0.0005894628
0.0005894628
0.0005894628
0.0005894628
0.0005894628
0.0005894628
0.0005894628
0.0005894628
0.0005894628
0.0005894628
0.0005894628
0.0005894628
0.0005894628
0.0005894628
0.0005894628
0.0005894628
0.0005894628
0.0005894628
0.0005894628
0.0005894628
0.0005894628
0.0005894628
0.0005894628
0.0005894628
0.0005894628
0.0005894628
0.0005894628
0.0005894628
0.0005894628
0.0005894628
0.0005894628
0.0005894628
0.0005894628
0.0005894628
0.0005894628
0.0005894628
0.0005894628
0.0005894628
0.0005894628
0.0005894628
0.0005894628
0.0005894628
0.0005894628
0.0005894628
0.0005894628
0.0005894628
0.0005894628
0.0005894628
0.0005894628
0.0005894628
0.0005894628
0.0005894628
0.0005894628
0.0005894628
0.0005894628
0.0005894628
0.0005894628
0.0005894628
0.0005894628
0.0005894628
0.0005894628
0.0005894628
0.0005894628
0.0005894628
0.0005894628
0.0005894628
0.0005894628
0.0005894628
0.0005894628
0.0005894628
0.0005894628
0.0005894628
0.0005894628
0.0005894628
0.0005894628
0.0005894628
0.0005894628
0.0005894628
0.0005894628
0.0005894628
0.0005894628
0.0005894628
0.0005894628
0.0005894628
0.0005894628
0.0005894628
0.0005894628
0.0005894628
0.0005894628
0.0005894628
0.0005894628
0.0005894628
0.0005894628
0.0005894628
0.0005894628
0.0005894628
0.0005894628
0.0005894628
0.0005894628
0.0005894628
0.0005894628
0.0005894628
0.0005894628
0.0005894628
0.0005894628
0.0005894628
0.0005894628
0.0005894628
0.0005894628
0.0005894628
0.0005894628
0.0005894628
0.0005894628
0.0005894628
0.0005894628
0.0005894628
0.0005894628
0.0005894628
0.0005894628
0.0005894628
0.0005894628
0.0005894628
0.0005894628
0.0005894628
0.0005894628
0.0005894628
0.0005894628
0.0005894628
0.0005894628
0.0005894628
0.0005894628
0.0005894628
0.0005894628
0.0005894628
0.0005894628
0.0005894628
0.0005894628
0.0005894628
0.0005894628
0.0005894628
0.0005894628
0.0005894628
0.0005894628
0.0005894628
0.0005894628
0.0005894628
0.0005894628
0.0005894628
0.0005894628
0.0005894628
0.0005894628
0.0005894628
0.0005894628
0.0005894628
0.0005894628
0.0005894628
0.0005894628
0.0005894628
0.0005894628
0.0005894628
0.0005894628
0.0005894628
0.0005894628
0.0005894628
0.0005894628
0.0005894628
0.0005894628
0.0005894628
0.0005894628
0.0005894628
0.0005894628
0.0005894628
0.0005894628
0.0005894628
0.0005894628
0.0005894628
0.0005894628
0.0005894628
0.0005894628
0.0005894628
0.0005894628
0.0005894628
0.0005894628
0.0005894628
0.0005894628
0.0005894628
0.0005894628
0.0005894628
0.0005894628
0.0005894628
0.0005894628
0.0005894628
0.0005894628
0.0005894628
0.0005894628
0.0005894628
0.0005894628
0.0005894628
0.0005894628
0.0005894628
0.0005894628
0.0005894628
0.0005894628
0.0005894628
0.0005894628
0.0005894628
0.0005894628
0.0005894628
0.0005894628
0.0005894628
0.0005894628
0.0005894628
0.0005894628
0.0005894628
0.0005894628
0.0005894628
0.0005894628
0.0005894628
0.0005894628
0.0005894628
0.0005894628
0.0005894628
0.0005894628
0.0005894628
0.0005894628
0.0005894628
0.0005894628
0.0005894628
0.0005894628
0.0005894628
0.0005894628
0.0005894628
0.0005894628
0.0005894628
0.0005894628
0.0005894628
0.0005894628
0.0005894628
0.0005894628
0.0005894628
0.0005894628
0.0005894628
0.0005894628
0.0005894628
0.0005894628
0.0005894628
0.0005894628
0.0005894628
0.0005894628
0.0005894628
0.0005894628
0.0005894628
0.0005894628
0.0005894628
0.0005894628
0.0005894628
0.0005894628
0.0005894628
0.0005894628
0.0005894628
0.0005894628
0.0005894628
0.0005894628
0.0005894628
0.0005894628
0.0005894628
0.0005894628
0.0005894628
0.0005894628
0.0005894628
0.0005894628
0.0005894628
0.0005894628
0.0005894628
0.0005894628
0.0005894628
0.0005894628
0.0005894628
0.0005894628
0.0005894628
0.0005894628
0.0005894628
0.0005894628
0.0005894628
0.0005894628
0.0005894628
0.0005894628
0.0005894628
0.0005894628
0.0005894628
0.0005894628
0.0005894628
0.0005894628
0.0005894628
0.0005894628
0.0005894628
0.0005894628
0.0005894628
0.0005894628
0.0005894628
0.0005894628
0.0005894628
0.0005894628
0.0005894628
0.0005894628
0.0005894628
0.0005894628
0.0005894628
0.0005894628
0.0005894628
0.0005894628
0.0005894628
0.0005894628
0.0005894628
0.0005894628
0.0005894628
0.0005894628
0.0005894628
0.0005894628
0.0005894628
0.0005894628
0.0005894628
0.0005894628
0.0005894628
0.0005894628
0.0005894628
0.0005894628
0.0005894628
0.0005894628
0.0005894628
0.0005894628
0.0005894628
0.0005894628
0.0005894628
0.0005894628
0.0005894628
0.0005894628
0.0005894628
0.0005894628
0.0005894628
0.0005894628
0.0005894628
0.0005894628
0.0005894628
0.0005894628
0.0005894628


SCALARS b FLOAT 1
LOOKUP_TABLE default
0.02357851
0.02357851
0.02357851
0.02357851
0.02357851
0.02357851
0.02357851
0.02357851
0.02357851
0.02357851
0.02357851
0.02357851
0.02357851
0.02357851
0.02357851
0.02357851
0.02357851
0.02357851
0.02357851
0.02357851
0.02357851
0.02357851
0.02357851
0.02357851
0.02357851
0.02357851
0.02357851
0.02357851
0.02357851
0.02357851
0.02357851
0.02357851
0.02357851
0.02357851
0.02357851
0.02357851
0.02357851
0.02357851
0.02357851
0.02357851
0.02357851
0.02357851
0.02357851
0.02357851
0.02357851
0.02357851
0.02357851
0.02357851
0.02357851
0.02357851
0.02357851
0.02357851
0.02357851
0.02357851
0.02357851
0.02357851
0.02357851
0.02357851
0.02357851
0.02357851
0.02357851
0.02357851
0.02357851
0.02357851
0.02357851
0.02357851
0.02357851
0.02357851
0.02357851
0.02357851
0.02357851
0.02357851
0.02357851
0.02357851
0.02357851
0.02357851
0.02357851
0.02357851
0.02357851
0.02357851
0.02357851
0.02357851
0.02357851
0.02357851
0.02357851
0.02357851
0.02357851
0.02357851
0.02357851
0.02357851
0.02357851
0.02357851
0.02357851
0.02357851
0.02357851
0.02357851
0.02357851
0.02357851
0.02357851
0.02357851
0.02357851
0.02357851
0.02357851
0.02357851
0.02357851
0.02357851
0.02357851
0.02357851
0.02357851
0.02357851
0.02357851
0.02357851
0.02357851
0.02357851
0.02357851
0.02357851
0.02357851
0.02357851
0.02357851
0.02357851
0.02357851
0.02357851
0.02357851
0.02357851
0.02357851
0.02357851
0.02357851
0.02357851
0.02357851
0.02357851
0.02357851
0.02357851
0.02357851
0.02357851
0.02357851
0.02357851
0.02357851
0.02357851
0.02357851
0.02357851
0.02357851
0.02357851
0.02357851
0.02357851
0.02357851
0.02357851
0.02357851
0.02357851
0.02357851
0.02357851
0.02357851
0.02357851
0.02357851
0.02357851
0.02357851
0.02357851
0.02357851
0.02357851
0.02357851
0.02357851
0.02357851
0.02357851
0.02357851
0.02357851
0.02357851
0.02357851
0.02357851
0.02357851
0.02357851
0.02357851
0.02357851
0.02357851
0.02357851
0.02357851
0.02357851
0.02357851
0.02357851
0.02357851
0.02357851
0.02357851
0.02357851
0.02357851
0.02357851
0.02357851
0.02357851
0.02357851
0.02357851
0.02357851
0.02357851
0.02357851
0.02357851
0.02357851
0.02357851
0.02357851
0.02357851
0.02357851
0.02357851
0.02357851
0.02357851
0.02357851
0.02357851
0.02357851
0.02357851
0.02357851
0.02357851
0.02357851
0.02357851
0.02357851
0.02357851
0.02357851
0.02357851
0.02357851
0.02357851
0.02357851
0.02357851
0.02357851
0.02357851
0.02357851
0.02357851
0.02357851
0.02357851
0.02357851
0.02357851
0.02357851
0.02357851
0.02357851
0.02357851
0.02357851
0.02357851
0.02357851
0.02357851
0.02357851
0.02357851
0.02357851
0.02357851
0.02357851
0.02357851
0.02357851
0.02357851
0.02357851
0.02357851
0.02357851
0.02357851
0.02357851
0.02357851
0.02357851
0.02357851
0.02357851
0.02357851
0.02357851
0.02357851
0.02357851
0.02357851
0.02357851
0.02357851
0.02357851
0.02357851
0.02357851
0.02357851
0.02357851
0.02357851
0.02357851
0.02357851
0.02357851
0.02357851
0.02357851
0.02357851
0.02357851
0.02357851
0.02357851
0.02357851
0.02357851
0.02357851
0.02357851
0.02357851
0.02357851
0.02357851
0.02357851
0.02357851
0.02357851
0.02357851
0.02357851
0.02357851
0.02357851
0.02357851
0.02357851
0.02357851
0.02357851
0.02357851
0.02357851
0.02357851
0.02357851
0.02357851
0.02357851
0.02357851
0.02357851
0.02357851
0.02357851
0.02357851
0.02357851
0.02357851
0.02357851
0.02357851
0.02357851
0.02357851
0.02357851
0.02357851
0.02357851
0.02357851
0.02357851
0.02357851
0.02357851
0.02357851
0.02357851
0.02357851
0.02357851
0.02357851
0.02357851
0.02357851
0.02357851
0.02357851
0.02357851
0.02357851
0.02357851
0.02357851
0.02357851
0.02357851
0.02357851
0.02357851
0.02357851
0.02357851
0.02357851
0.02357851
0.02357851
0.02357851
0.02357851
0.02357851
0.02357851
0.02357851
0.02357851
0.02357851
0.02357851
0.02357851
0.02357851
0.02357851
0.02357851
0.02357851
0.02357851
0.02357851
0.02357851


VECTORS d1 FLOAT
0 0.2456458 0.9693597
-0.00936516 0.2633634 0.9646512
-0.01913361 0.2809528 0.9595308
-0.02927984 0.2983999 0.9539917
-0.03977899 0.3156903 0.9480281
-0.05060682 0.3328098 0.9416351
-0.06173963 0.3497442 0.9348086
-0.07315426 0.3664794 0.9275459
-0.08482802 0.3830013 0.9198447
-0.09673869 0.3992962 0.911704
-0.1088645 0.4153504 0.9031238
-0.121184 0.4311507 0.8941049
-0.1336764 0.4466841 0.884649
-0.146321 0.4619381 0.874759
-0.1590977 0.4769004 0.8644385
-0.1719868 0.4915593 0.853692
-0.184969 0.5059035 0.8425248
-0.1980253 0.5199223 0.8309433
-0.2111371 0.5336054 0.8189544
-0.2242866 0.5469432 0.806566
-0.2374559 0.5599265 0.7937865
-0.250628 0.5725468 0.7806253
-0.2637862 0.5847962 0.7670921
-0.2769142 0.5966674 0.7531975
-0.2899963 0.6081538 0.7389527
-0.3030173 0.6192494 0.7243691
-0.3159625 0.6299489 0.709459
-0.3288176 0.6402474 0.694235
-0.3415692 0.6501411 0.6787098
-0.354204 0.6596265 0.662897
-0.3667095 0.6687008 0.6468102
-0.3790738 0.6773619 0.6304633
-0.3912855 0.6856084 0.6138703
-0.4033338 0.6934394 0.5970458
-0.4152084 0.7008546 0.5800042
-0.4268997 0.7078544 0.56276
-0.4383985 0.7144398 0.5453279
-0.4496965 0.7206121 0.5277227
-0.4607857 0.7263735 0.5099589
-0.4716587 0.7317265 0.4920513
-0.4823088 0.7366741 0.4740143
-0.4927298 0.7412198 0.4558624
-0.502916 0.7453677 0.43761
-0.5128624 0.7491221 0.419271
-0.5225643 0.752488 0.4008595
-0.5320178 0.7554704 0.3823892
-0.5412193 0.758075 0.3638734
-0.5501659 0.7603077 0.3453255
-0.5588549 0.7621747 0.3267581
-0.5672844 0.7636825 0.308184
-0.5754528 0.7648379 0.2896154
-0.5833589 0.7656478 0.2710643
-0.591002 0.7661195 0.2525421
-0.5983819 0.7662604 0.23406
-0.6054986 0.766078 0.215629
-0.6123527 0.7655801 0.1972594
-0.6189449 0.7647745 0.1789614
-0.6252765 0.7636691 0.1607445
-0.6313489 0.762272 0.1426182
-0.6371641 0.7605912 0.1245912
-0.6427242 0.7586348 0.1066721
-0.6480315 0.756411 0.08886892
-0.6530887 0.7539279 0.07118942
-0.6578988 0.7511936 0.05364089
-0.6624648 0.7482164 0.03623026
-0.6667902 0.7450041 0.01896407
-0.6708785 0.741565 0.001848487
-0.6747334 0.7379068 -0.0151107
-0.6783588 0.7340376 -0.03190806
-0.6817588 0.729965 -0.04853852
-0.6849376 0.7256968 -0.06499735
-0.6878994 0.7212405 -0.08128018
-0.6906488 0.7166037 -0.09738295
-0.6931902 0.7117936 -0.1133019
-0.6955282 0.7068174 -0.1290337
-0.6976676 0.7016823 -0.1445751
-0.699613 0.6963951 -0.1599235
-0.7013694 0.6909626 -0.1750761
-0.7029416 0.6853914 -0.1900308
-0.7043344 0.6796881 -0.2047855
-0.7055528 0.6738589 -0.2193386
-0.7066018 0.6679099 -0.2336884
-0.7074862 0.6618472 -0.2478338
-0.708211 0.6556765 -0.2617737
-0.7087812 0.6494036 -0.2755072
-0.7092017 0.6430338 -0.2890337
-0.7094774 0.6365726 -0.3023527
-0.7096132 0.630025 -0.315464
-0.709614 0.6233961 -0.3283675
-0.7094847 0.6166906 -0.3410633
-0.70923 0.6099132 -0.3535516
-0.7088546 0.6030684 -0.3658328
-0.7083633 0.5961606 -0.3779073
-0.7077608 0.5891939 -0.3897758
-0.7070516 0.5821723 -0.4014392
-0.7062404 0.5750997 -0.4128982
-0.7053315 0.5679797 -0.4241538
-0.7043295 0.5608161 -0.4352072
-0.7032387 0.553612 -0.4460595
-0.7020634 0.546371 -0.4567119
-0.7008079 0.539096 -0.4671658
-0.6994763 0.53179 -0.4774226
-0.6980728 0.5244559 -0.4874837
-0.6966013 0.5170965 -0.4973508
-0.6950659 0.5097143 -0.5070254
-0.6934704 0.5023119 -0.516509
-0.6918187 0.4948915 -0.5258035
-0.6901145 0.4874554 -0.5349104
-0.6883616 0.4800057 -0.5438317
-0.6865634 0.4725445 -0.5525689
-0.6847236 0.4650736 -0.561124
-0.6828456 0.4575948 -0.5694988
-0.6809328 0.4501098 -0.5776952
-0.6789885 0.4426203 -0.5857149
-0.677016 0.4351277 -0.5935598
-0.6750184 0.4276334 -0.6012319
-0.6729989 0.4201388 -0.608733
-0.6709605 0.4126451 -0.6160649
-0.6689062 0.4051535 -0.6232297
-0.6668388 0.3976649 -0.630229
-0.6647612 0.3901805 -0.6370649
-0.6626761 0.3827012 -0.6437392
-0.6605863 0.3752278 -0.6502537
-0.6584944 0.367761 -0.6566102
-0.656403 0.3603017 -0.6628106
-0.6543144 0.3528504 -0.6688566
-0.6522313 0.3454078 -0.6747502
-0.6501559 0.3379744 -0.6804929
-0.6480907 0.3305506 -0.6860866
-0.6460377 0.323137 -0.6915329
-0.6439993 0.3157339 -0.6968336
-0.6419775 0.3083415 -0.7019903
-0.6399744 0.3009603 -0.7070047
-0.6379921 0.2935904 -0.7118783
-0.6360325 0.286232 -0.7166128
-0.6340974 0.2788854 -0.7212097
-0.6321889 0.2715505 -0.7256704
-0.6303085 0.2642274 -0.7299966
-0.6284582 0.2569163 -0.7341896
-0.6266395 0.2496171 -0.7382508
-0.6248541 0.2423298 -0.7421817
-0.6231035 0.2350543 -0.7459836
-0.6213893 0.2277906 -0.7496577
-0.619713 0.2205386 -0.7532055
-0.618076 0.213298 -0.756628
-0.6164797 0.2060688 -0.7599266
-0.6149253 0.1988508 -0.7631024
-0.6134142 0.1916437 -0.7661565
-0.6119476 0.1844473 -0.76909
-0.6105266 0.1772614 -0.7719039
-0.6091524 0.1700857 -0.7745994
-0.6078262 0.1629199 -0.7771772
-0.6065488 0.1557637 -0.7796385
-0.6053214 0.1486169 -0.7819841
-0.6041447 0.141479 -0.7842148
-0.6030199 0.1343498 -0.7863314
-0.6019476 0.1272288 -0.7883349
-0.6009288 0.1201157 -0.7902258
-0.5999641 0.1130101 -0.7920049
-0.5990543 0.1059117 -0.7936729
-0.5982001 0.09881993 -0.7952303
-0.5974021 0.09173452 -0.7966778
-0.5966609 0.084655 -0.7980159
-0.5959769 0.07758095 -0.7992451
-0.5953508 0.07051194 -0.8003659
-0.5947829 0.06344752 -0.8013786
-0.5942738 0.05638726 -0.8022837
-0.5938236 0.0493307 -0.8030816
-0.5934329 0.04227739 -0.8037724
-0.5931017 0.03522688 -0.8043565
-0.5928305 0.0281787 -0.8048341
-0.5926193 0.02113239 -0.8052054
-0.5924684 0.01408748 -0.8054705
-0.5923778 0.007043504 -0.8056295
-0.5923476 3.773648e-13 -0.8056825
-0.5923778 -0.007043504 -0.8056295
-0.5924684 -0.01408748 -0.8054705
-0.5926193 -0.02113239 -0.8052054
-0.5928305 -0.0281787 -0.8048341
-0.5931017 -0.03522688 -0.8043565
-0.5934329 -0.04227739 -0.8037724
-0.5938236 -0.0493307 -0.8030816
-0.5942738 -0.05638726 -0.8022837
-0.5947829 -0.06344752 -0.8013786
-0.5953508 -0.07051194 -0.8003659
-0.5959769 -0.07758095 -0.7992451
-0.5966609 -0.084655 -0.7980159
-0.5974021 -0.09173452 -0.7966778
-0.5982001 -0.09881993 -0.7952303
-0.5990543 -0.1059117 -0.7936729
-0.5999641 -0.1130101 -0.7920049
-0.6009288 -0.1201157 -0.7902258
-0.6019476 -0.1272288 -0.7883349
-0.6030199 -0.1343498 -0.7863314
-0.6041447 -0.141479 -0.7842148
-0.6053214 -0.1486169 -0.7819841
-0.6065488 -0.1557637 -0.7796385
-0.6078262 -0.1629199 -0.7771772
-0.6091524 -0.1700857 -0.7745994
-0.6105266 -0.1772614 -0.7719039
-0.6119476 -0.1844473 -0.76909
-0.6134142 -0.1916437 -0.7661565
-0.6149253 -0.1988508 -0.7631024
-0.6164797 -0.2060688 -0.7599266
-0.618076 -0.213298 -0.756628
-0.619713 -0.2205386 -0.7532055
-0.6213893 -0.2277906 -0.7496577
-0.6231035 -0.2350543 -0.7459836
-0.6248541 -0.2423298 -0.7421817
-0.6266395 -0.2496171 -0.7382508
-0.6284582 -0.2569163 -0.7341896
-0.6303085 -0.2642274 -0.7299966
-0.6321889 -0.2715505 -0.7256704
-0.6340974 -0.2788854 -0.7212097
-0.6360325 -0.286232 -0.7166128
-0.6379921 -0.2935904 -0.7118783
-0.6399744 -0.3009603 -0.7070047
-0.6419775 -0.3083415 -0.7019903
-0.6439993 -0.3157339 -0.6968336
-0.6460377 -0.323137 -0.6915329
-0.6480907 -0.3305506 -0.6860866
-0.6501559 -0.3379744 -0.6804929
-0.6522313 -0.3454078 -0.6747502
-0.6543144 -0.3528504 -0.6688566
-0.656403 -0.3603017 -0.6628106
-0.6584944 -0.367761 -0.6566102
-0.6605863 -0.3752278 -0.6502537
-0.6626761 -0.3827012 -0.6437392
-0.6647612 -0.3901805 -0.6370649