# vtk DataFile Version 2.0
Written badly by Kevin Korner
ASCII
DATASET POLYDATA
POINTS 350 FLOAT
0 0 0
0.00286533 0 0
0.005730658 8.378429e-08 1.813317e-06
0.008595975 4.298458e-07 1.038081e-05
0.01146124 1.405559e-06 3.02127e-05
0.01432635 3.538116e-06 6.534284e-05
0.01719117 7.487953e-06 0.0001193498
0.02005548 1.402695e-05 0.0001954043
0.02291901 2.402107e-05 0.0002963209
0.02578143 3.841629e-05 0.0004246027
0.02864234 5.822698e-05 0.0005824794
0.03150128 8.452592e-05 0.000771937
0.03435773 0.0001184355 0.0009947421
0.03721113 0.0001611197 0.001252461
0.04006085 0.0002137768 0.001546474
0.04290622 0.0002776329 0.00187799
0.04574653 0.0003539347 0.002248057
0.04858101 0.0004439441 0.002657566
0.05140888 0.000548932 0.003107265
0.05422931 0.0006701729 0.003597763
0.05704144 0.0008089392 0.004129533
0.05984439 0.0009664965 0.004702923
0.06263725 0.001144098 0.005318156
0.0654191 0.001342982 0.005975338
0.06818899 0.001564363 0.006674461
0.07094599 0.001809433 0.007415408
0.07368915 0.002079353 0.008197957
0.07641749 0.002375252 0.009021787
0.07913007 0.002698222 0.009886483
0.08182594 0.003049316 0.01079154
0.08450416 0.003429544 0.01173635
0.0871638 0.003839873 0.01272026
0.08980394 0.004281221 0.01374251
0.09242369 0.004754456 0.01480227
0.09502216 0.005260395 0.01589865
0.09759852 0.005799804 0.01703071
0.1001519 0.006373394 0.01819743
0.1026816 0.006981821 0.01939776
0.1051867 0.007625685 0.02063057
0.1076666 0.008305531 0.02189473
0.1101205 0.009021848 0.02318903
0.1125478 0.009775067 0.02451226
0.1149479 0.01056557 0.02586317
0.1173201 0.01139367 0.02724047
0.1196639 0.01225963 0.02864288
0.1219788 0.01316368 0.03006908
0.1242643 0.01410597 0.03151774
0.12652 0.01508661 0.03298755
0.1287455 0.01610566 0.03447716
0.1309404 0.01716313 0.03598524
0.1331044 0.01825898 0.03751046
0.1352372 0.01939314 0.03905149
0.1373387 0.02056548 0.04060703
0.1394085 0.02177583 0.04217577
0.1414466 0.02302399 0.04375643
0.1434528 0.02430971 0.04534773
0.145427 0.02563272 0.04694844
0.1473692 0.02699271 0.04855732
0.1492793 0.02838933 0.05017317
0.1511574 0.02982221 0.05179482
0.1530035 0.03129095 0.05342112
0.1548176 0.03279514 0.05505094
0.1566 0.03433431 0.05668321
0.1583506 0.03590801 0.05831685
0.1600698 0.03751574 0.05995085
0.1617575 0.03915701 0.0615842
0.1634141 0.04083129 0.06321594
0.1650398 0.04253804 0.06484514
0.1666348 0.04427672 0.06647091
0.1681993 0.04604678 0.06809238
0.1697337 0.04784765 0.06970873
0.1712383 0.04967875 0.07131915
0.1727133 0.05153951 0.07292289
0.1741592 0.05342934 0.07451921
0.1755761 0.05534766 0.07610742
0.1769645 0.05729388 0.07768686
0.1783248 0.05926741 0.07925689
0.1796573 0.06126765 0.0808169
0.1809623 0.06329403 0.08236633
0.1822403 0.06534596 0.08390464
0.1834917 0.06742285 0.08543131
0.1847168 0.06952412 0.08694585
0.1859161 0.0716492 0.08844782
0.1870899 0.07379752 0.08993678
0.1882387 0.07596851 0.09141233
0.1893628 0.07816162 0.09287409
0.1904627 0.0803763 0.0943217
0.1915387 0.082612 0.09575484
0.1925913 0.08486819 0.09717319
0.1936209 0.08714434 0.09857647
0.1946279 0.08943993 0.09996442
0.1956126 0.09175445 0.1013368
0.1965755 0.0940874 0.1026933
0.197517 0.09643829 0.1040339
0.1984375 0.09880663 0.1053582
0.1993373 0.1011919 0.1066662
0.2002168 0.1035938 0.1079576
0.2010764 0.1060117 0.1092323
0.2019165 0.1084452 0.1104903
0.2027374 0.1108939 0.1117313
0.2035396 0.1133573 0.1129553
0.2043233 0.1158351 0.1141621
0.2050889 0.1183268 0.1153518
0.2058368 0.120832 0.1165243
0.2065673 0.1233504 0.1176794
0.2072808 0.1258815 0.1188172
0.2079775 0.128425 0.1199375
0.2086577 0.1309806 0.1210405
0.2093219 0.1335478 0.122126
0.2099703 0.1361264 0.123194
0.2106031 0.1387159 0.1242446
0.2112208 0.1413162 0.1252778
0.2118236 0.1439268 0.1262934
0.2124117 0.1465474 0.1272917
0.2129854 0.1491778 0.1282725
0.2135451 0.1518176 0.1292359
0.2140909 0.1544666 0.1301819
0.2146232 0.1571245 0.1311106
0.2151421 0.159791 0.1320219
0.215648 0.1624659 0.132916
0.216141 0.1651488 0.1337929
0.2166213 0.1678396 0.1346525
0.2170893 0.170538 0.135495
0.2175452 0.1732437 0.1363204
0.217989 0.1759566 0.1371288
0.2184211 0.1786764 0.1379202
0.2188416 0.1814028 0.1386946
0.2192508 0.1841358 0.1394521
0.2196488 0.1868749 0.1401928
0.2200358 0.1896202 0.1409166
0.220412 0.1923713 0.1416238
0.2207776 0.195128 0.1423143
0.2211327 0.1978903 0.1429881
0.2214775 0.2006578 0.1436454
0.2218121 0.2034304 0.1442862
0.2221367 0.206208 0.1449105
0.2224514 0.2089904 0.1455184
0.2227565 0.2117773 0.14611
0.2230519 0.2145687 0.1466853
0.2233379 0.2173644 0.1472444
0.2236146 0.2201642 0.1477873
0.2238821 0.2229679 0.148314
0.2241405 0.2257755 0.1488247
0.22439 0.2285868 0.1493193
0.2246306 0.2314016 0.149798
0.2248624 0.2342198 0.1502607
0.2250856 0.2370412 0.1507075
0.2253003 0.2398658 0.1511385
0.2255064 0.2426934 0.1515537
0.2257043 0.2455239 0.1519532
0.2258938 0.248357 0.1523369
0.2260751 0.2511928 0.152705
0.2262484 0.2540311 0.1530575
0.2264135 0.2568718 0.1533943
0.2265707 0.2597147 0.1537156
0.22672 0.2625598 0.1540213
0.2268614 0.2654068 0.1543116
0.2269951 0.2682558 0.1545864
0.227121 0.2711066 0.1548458
0.2272392 0.2739591 0.1550898
0.2273498 0.2768131 0.1553184
0.2274529 0.2796687 0.1555316
0.2275483 0.2825256 0.1557295
0.2276363 0.2853837 0.1559121
0.2277169 0.288243 0.1560794
0.22779 0.2911034 0.1562315
0.2278557 0.2939647 0.1563683
0.227914 0.2968268 0.1564898
0.227965 0.2996897 0.1565962
0.2280087 0.3025533 0.1566873
0.228045 0.3054174 0.1567632
0.2280741 0.3082819 0.1568239
0.2280959 0.3111468 0.1568695
0.2281104 0.3140119 0.1568998
0.2281177 0.3168772 0.156915
0.2281177 0.3197426 0.156915
0.2281104 0.3226078 0.1568998
0.2280959 0.325473 0.1568695
0.2280741 0.3283378 0.1568239
0.228045 0.3312024 0.1567632
0.2280087 0.3340665 0.1566873
0.227965 0.33693 0.1565962
0.227914 0.3397929 0.1564898
0.2278557 0.3426551 0.1563683
0.22779 0.3455164 0.1562315
0.2277169 0.3483767 0.1560794
0.2276363 0.3512361 0.1559121
0.2275483 0.3540942 0.1557295
0.2274529 0.3569511 0.1555316
0.2273498 0.3598066 0.1553184
0.2272392 0.3626607 0.1550898
0.227121 0.3655132 0.1548458
0.2269951 0.3683639 0.1545864
0.2268614 0.3712129 0.1543116
0.22672 0.37406 0.1540213
0.2265707 0.3769051 0.1537156
0.2264135 0.379748 0.1533943
0.2262484 0.3825886 0.1530575
0.2260751 0.3854269 0.152705
0.2258938 0.3882627 0.1523369
0.2257043 0.3910959 0.1519532
0.2255064 0.3939264 0.1515537
0.2253003 0.3967539 0.1511385
0.2250856 0.3995785 0.1507075
0.2248624 0.4024 0.1502607
0.2246306 0.4052182 0.149798
0.22439 0.408033 0.1493193
0.2241405 0.4108442 0.1488247
0.2238821 0.4136518 0.148314
0.2236146 0.4164556 0.1477873
0.2233379 0.4192554 0.1472444
0.2230519 0.4220511 0.1466853
0.2227565 0.4248425 0.14611
0.2224514 0.4276294 0.1455184
0.2221367 0.4304118 0.1449105
0.2218121 0.4331893 0.1442862
0.2214775 0.435962 0.1436454
0.2211327 0.4387295 0.1429881
0.2207776 0.4414917 0.1423143
0.220412 0.4442485 0.1416238
0.2200358 0.4469996 0.1409166
0.2196488 0.4497448 0.1401928
0.2192508 0.452484 0.1394521
0.2188416 0.4552169 0.1386946
0.2184211 0.4579434 0.1379202
0.217989 0.4606632 0.1371288
0.2175452 0.463376 0.1363204
0.2170893 0.4660818 0.135495
0.2166213 0.4687802 0.1346525
0.216141 0.4714709 0.1337929
0.215648 0.4741539 0.132916
0.2151421 0.4768287 0.1320219
0.2146232 0.4794952 0.1311106
0.2140909 0.4821531 0.1301819
0.2135451 0.4848021 0.1292359
0.2129854 0.487442 0.1282725
0.2124117 0.4900724 0.1272917
0.2118236 0.492693 0.1262934
0.2112208 0.4953036 0.1252778
0.2106031 0.4979038 0.1242446
0.2099703 0.5004934 0.123194
0.2093219 0.503072 0.122126
0.2086577 0.5056392 0.1210405
0.2079775 0.5081948 0.1199375
0.2072808 0.5107383 0.1188172
0.2065673 0.5132694 0.1176794
0.2058368 0.5157878 0.1165243
0.2050889 0.518293 0.1153518
0.2043233 0.5207847 0.1141621
0.2035396 0.5232625 0.1129553
0.2027374 0.5257259 0.1117313
0.2019165 0.5281746 0.1104903
0.2010764 0.5306081 0.1092323
0.2002168 0.533026 0.1079576
0.1993373 0.5354278 0.1066662
0.1984375 0.5378131 0.1053582
0.197517 0.5401815 0.1040339
0.1965755 0.5425324 0.1026933
0.1956126 0.5448653 0.1013368
0.1946279 0.5471798 0.09996442
0.1936209 0.5494754 0.09857647
0.1925913 0.5517516 0.09717319
0.1915387 0.5540078 0.09575484
0.1904627 0.5562435 0.0943217
0.1893628 0.5584582 0.09287409
0.1882387 0.5606513 0.09141233
0.1870899 0.5628223 0.08993678
0.1859161 0.5649706 0.08844782
0.1847168 0.5670957 0.08694585
0.1834917 0.5691969 0.08543131
0.1822403 0.5712738 0.08390464
0.1809623 0.5733257 0.08236633
0.1796573 0.5753521 0.0808169
0.1783248 0.5773524 0.07925689
0.1769645 0.5793259 0.07768686
0.1755761 0.5812721 0.07610742
0.1741592 0.5831904 0.07451921
0.1727133 0.5850803 0.07292289
0.1712383 0.586941 0.07131915
0.1697337 0.5887721 0.06970873
0.1681993 0.590573 0.06809238
0.1666348 0.592343 0.06647091
0.1650398 0.5940817 0.06484514
0.1634141 0.5957885 0.06321594
0.1617575 0.5974628 0.0615842
0.1600698 0.599104 0.05995085
0.1583506 0.6007118 0.05831685
0.1566 0.6022855 0.05668321
0.1548176 0.6038246 0.05505094
0.1530035 0.6053288 0.05342112
0.1511574 0.6067976 0.05179482
0.1492793 0.6082304 0.05017317
0.1473692 0.6096271 0.04855732
0.145427 0.6109871 0.04694844
0.1434528 0.6123101 0.04534773
0.1414466 0.6135958 0.04375643
0.1394085 0.6148439 0.04217577
0.1373387 0.6160543 0.04060703
0.1352372 0.6172266 0.03905149
0.1331044 0.6183608 0.03751046
0.1309404 0.6194566 0.03598524
0.1287455 0.6205141 0.03447716
0.12652 0.6215332 0.03298755
0.1242643 0.6225138 0.03151774
0.1219788 0.6234561 0.03006908
0.1196639 0.6243601 0.02864288
0.1173201 0.6252261 0.02724047
0.1149479 0.6260542 0.02586317
0.1125478 0.6268447 0.02451226
0.1101205 0.6275979 0.02318903
0.1076666 0.6283142 0.02189473
0.1051867 0.6289941 0.02063057
0.1026816 0.629638 0.01939776
0.1001519 0.6302464 0.01819743
0.09759852 0.63082 0.01703071
0.09502216 0.6313594 0.01589865
0.09242369 0.6318653 0.01480227
0.08980394 0.6323386 0.01374251
0.0871638 0.6327799 0.01272026
0.08450416 0.6331902 0.01173635
0.08182594 0.6335705 0.01079154
0.07913007 0.6339216 0.009886483
0.07641749 0.6342445 0.009021787
0.07368915 0.6345404 0.008197957
0.07094599 0.6348103 0.007415408
0.06818899 0.6350554 0.006674461
0.0654191 0.6352768 0.005975338
0.06263725 0.6354757 0.005318156
0.05984439 0.6356533 0.004702923
0.05704144 0.6358108 0.004129533
0.05422931 0.6359496 0.003597763
0.05140888 0.6360708 0.003107265
0.04858101 0.6361758 0.002657566
0.04574653 0.6362658 0.002248057
0.04290622 0.6363421 0.00187799
0.04006085 0.636406 0.001546474
0.03721113 0.6364587 0.001252461
0.03435773 0.6365013 0.0009947421
0.03150128 0.6365352 0.000771937
0.02864234 0.6365615 0.0005824794
0.02578143 0.6365814 0.0004246027
0.02291901 0.6365958 0.0002963209
0.02005548 0.6366057 0.0001954043
0.01719117 0.6366123 0.0001193498
0.01432635 0.6366162 6.534284e-05
0.01146124 0.6366184 3.02127e-05
0.008595975 0.6366193 1.038081e-05
0.005730658 0.6366197 1.813317e-06
0.00286533 0.6366198 0
0 0.6366198 0

LINES 349 1047
2 0 1
2 1 2
2 2 3
2 3 4
2 4 5
2 5 6
2 6 7
2 7 8
2 8 9
2 9 10
2 10 11
2 11 12
2 12 13
2 13 14
2 14 15
2 15 16
2 16 17
2 17 18
2 18 19
2 19 20
2 20 21
2 21 22
2 22 23
2 23 24
2 24 25
2 25 26
2 26 27
2 27 28
2 28 29
2 29 30
2 30 31
2 31 32
2 32 33
2 33 34
2 34 35
2 35 36
2 36 37
2 37 38
2 38 39
2 39 40
2 40 41
2 41 42
2 42 43
2 43 44
2 44 45
2 45 46
2 46 47
2 47 48
2 48 49
2 49 50
2 50 51
2 51 52
2 52 53
2 53 54
2 54 55
2 55 56
2 56 57
2 57 58
2 58 59
2 59 60
2 60 61
2 61 62
2 62 63
2 63 64
2 64 65
2 65 66
2 66 67
2 67 68
2 68 69
2 69 70
2 70 71
2 71 72
2 72 73
2 73 74
2 74 75
2 75 76
2 76 77
2 77 78
2 78 79
2 79 80
2 80 81
2 81 82
2 82 83
2 83 84
2 84 85
2 85 86
2 86 87
2 87 88
2 88 89
2 89 90
2 90 91
2 91 92
2 92 93
2 93 94
2 94 95
2 95 96
2 96 97
2 97 98
2 98 99
2 99 100
2 100 101
2 101 102
2 102 103
2 103 104
2 104 105
2 105 106
2 106 107
2 107 108
2 108 109
2 109 110
2 110 111
2 111 112
2 112 113
2 113 114
2 114 115
2 115 116
2 116 117
2 117 118
2 118 119
2 119 120
2 120 121
2 121 122
2 122 123
2 123 124
2 124 125
2 125 126
2 126 127
2 127 128
2 128 129
2 129 130
2 130 131
2 131 132
2 132 133
2 133 134
2 134 135
2 135 136
2 136 137
2 137 138
2 138 139
2 139 140
2 140 141
2 141 142
2 142 143
2 143 144
2 144 145
2 145 146
2 146 147
2 147 148
2 148 149
2 149 150
2 150 151
2 151 152
2 152 153
2 153 154
2 154 155
2 155 156
2 156 157
2 157 158
2 158 159
2 159 160
2 160 161
2 161 162
2 162 163
2 163 164
2 164 165
2 165 166
2 166 167
2 167 168
2 168 169
2 169 170
2 170 171
2 171 172
2 172 173
2 173 174
2 174 175
2 175 176
2 176 177
2 177 178
2 178 179
2 179 180
2 180 181
2 181 182
2 182 183
2 183 184
2 184 185
2 185 186
2 186 187
2 187 188
2 188 189
2 189 190
2 190 191
2 191 192
2 192 193
2 193 194
2 194 195
2 195 196
2 196 197
2 197 198
2 198 199
2 199 200
2 200 201
2 201 202
2 202 203
2 203 204
2 204 205
2 205 206
2 206 207
2 207 208
2 208 209
2 209 210
2 210 211
2 211 212
2 212 213
2 213 214
2 214 215
2 215 216
2 216 217
2 217 218
2 218 219
2 219 220
2 220 221
2 221 222
2 222 223
2 223 224
2 224 225
2 225 226
2 226 227
2 227 228
2 228 229
2 229 230
2 230 231
2 231 232
2 232 233
2 233 234
2 234 235
2 235 236
2 236 237
2 237 238
2 238 239
2 239 240
2 240 241
2 241 242
2 242 243
2 243 244
2 244 245
2 245 246
2 246 247
2 247 248
2 248 249
2 249 250
2 250 251
2 251 252
2 252 253
2 253 254
2 254 255
2 255 256
2 256 257
2 257 258
2 258 259
2 259 260
2 260 261
2 261 262
2 262 263
2 263 264
2 264 265
2 265 266
2 266 267
2 267 268
2 268 269
2 269 270
2 270 271
2 271 272
2 272 273
2 273 274
2 274 275
2 275 276
2 276 277
2 277 278
2 278 279
2 279 280
2 280 281
2 281 282
2 282 283
2 283 284
2 284 285
2 285 286
2 286 287
2 287 288
2 288 289
2 289 290
2 290 291
2 291 292
2 292 293
2 293 294
2 294 295
2 295 296
2 296 297
2 297 298
2 298 299
2 299 300
2 300 301
2 301 302
2 302 303
2 303 304
2 304 305
2 305 306
2 306 307
2 307 308
2 308 309
2 309 310
2 310 311
2 311 312
2 312 313
2 313 314
2 314 315
2 315 316
2 316 317
2 317 318
2 318 319
2 319 320
2 320 321
2 321 322
2 322 323
2 323 324
2 324 325
2 325 326
2 326 327
2 327 328
2 328 329
2 329 330
2 330 331
2 331 332
2 332 333
2 333 334
2 334 335
2 335 336
2 336 337
2 337 338
2 338 339
2 339 340
2 340 341
2 341 342
2 342 343
2 343 344
2 344 345
2 345 346
2 346 347
2 347 348
2 348 349


POINT_DATA 350
SCALARS a FLOAT 1
LOOKUP_TABLE default
0.0005894628
0.0005894628
0.0005894628
0.0005894628
0.0005894628
0.0005894628
0.0005894628
0.0005894628
0.0005894628
0.0005894628
0.0005894628
0.0005894628
0.0005894628
0.0005894628
0.0005894628
0.0005894628
0.0005894628
0.0005894628
0.0005894628
0.0005894628
0.0005894628
0.0005894628
0.0005894628
0.0005894628
0.0005894628
0.0005894628
0.0005894628
0.0005894628
0.0005894628
0.0005894628
0.0005894628
0.0005894628
0.0005894628
0.0005894628
0.0005894628
0.0005894628
0.0005894628
0.0005894628
0.0005894628
0.0005894628
0.0005894628
0.0005894628
0.0005894628
0.0005894628
0.0005894628
0.0005894628
0.0005894628
0.0005894628
0.0005894628
0.0005894628
0.0005894628
0.0005894628
0.0005894628
0.0005894628
0.0005894628
0.0005894628
0.0005894628
0.0005894628
0.0005894628
0.0005894628
0.0005894628
0.0005894628
0.0005894628
0.0005894628
0.0005894628
0.0005894628
0.0005894628
0.0005894628
0.0005894628
0.0005894628
0.0005894628
0.0005894628
0.0005894628
0.0005894628
0.0005894628
0.0005894628
0.0005894628
0.0005894628
0.0005894628
0.0005894628
0.0005894628
0.0005894628
0.0005894628
0.0005894628
0.0005894628
0.0005894628
0.0005894628
0.0005894628
0.0005894628
0.0005894628
0.0005894628
0.0005894628
0.0005894628
0.0005894628
0.0005894628
0.0005894628
0.0005894628
0.0005894628
0.0005894628
0.0005894628
0.0005894628
0.0005894628
0.0005894628
0.0005894628
0.0005894628
0.0005894628
0.0005894628
0.0005894628
0.0005894628
0.0005894628
0.0005894628
0.0005894628
0.0005894628
0.0005894628
0.0005894628
0.0005894628
0.0005894628
0.0005894628
0.0005894628
0.0005894628
0.0005894628
0.0005894628
0.0005894628
0.0005894628
0.0005894628
0.0005894628
0.0005894628
0.0005894628
0.0005894628
0.0005894628
0.0005894628
0.0005894628
0.0005894628
0.0005894628
0.0005894628
0.0005894628
0.0005894628
0.0005894628
0.0005894628
0.0005894628
0.0005894628
0.0005894628
0.0005894628
0.0005894628
0.0005894628
0.0005894628
0.0005894628
0.0005894628
0.0005894628
0.0005894628
0.0005894628
0.0005894628
0.0005894628
0.0005894628
0.0005894628
0.0005894628
0.0005894628
0.0005894628
0.0005894628
0.0005894628
0.0005894628
0.0005894628
0.0005894628
0.0005894628
0.0005894628
0.0005894628
0.0005894628
0.0005894628
0.0005894628
0.0005894628
0.0005894628
0.0005894628
0.0005894628
0.0005894628
0.0005894628
0.0005894628
0.0005894628
0.0005894628
0.0005894628
0.0005894628
0.0005894628
0.0005894628
0.0005894628
0.0005894628
0.0005894628
0.0005894628
0.0005894628
0.0005894628
0.0005894628
0.0005894628
0.0005894628
0.0005894628
0.0005894628
0.0005894628
0.0005894628
0.0005894628
0.0005894628
0.0005894628
0.0005894628
0.0005894628
0.0005894628
0.0005894628
0.0005894628
0.0005894628
0.0005894628
0.0005894628
0.0005894628
0.0005894628
0.0005894628
0.0005894628
0.0005894628
0.0005894628
0.0005894628
0.0005894628
0.0005894628
0.0005894628
0.0005894628
0.0005894628
0.0005894628
0.0005894628
0.0005894628
0.0005894628
0.0005894628
0.0005894628
0.0005894628
0.0005894628
0.0005894628
0.0005894628
0.0005894628
0.0005894628
0.0005894628
0.0005894628
0.0005894628
0.0005894628
0.0005894628
0.0005894628
0.0005894628
0.0005894628
0.0005894628
0.0005894628
0.0005894628
0.0005894628
0.0005894628
0.0005894628
0.0005894628
0.0005894628
0.0005894628
0.0005894628
0.0005894628
0.0005894628
0.0005894628
0.0005894628
0.0005894628
0.0005894628
0.0005894628
0.0005894628
0.0005894628
0.0005894628
0.0005894628
0.0005894628
0.0005894628
0.0005894628
0.0005894628
0.0005894628
0.0005894628
0.0005894628
0.0005894628
0.0005894628
0.0005894628
0.0005894628
0.0005894628
0.0005894628
0.0005894628
0.0005894628
0.0005894628
0.0005894628
0.0005894628
0.0005894628
0.0005894628
0.0005894628
0.0005894628
0.0005894628
0.0005894628
0.0005894628
0.0005894628
0.0005894628
0.0005894628
0.0005894628
0.0005894628
0.0005894628
0.0005894628
0.0005894628
0.0005894628
0.0005894628
0.0005894628
0.0005894628
0.0005894628
0.0005894628
0.0005894628
0.0005894628
0.0005894628
0.0005894628
0.0005894628
0.0005894628
0.0005894628
0.0005894628
0.0005894628
0.0005894628
0.0005894628
0.0005894628
0.0005894628
0.0005894628
0.0005894628
0.0005894628
0.0005894628
0.0005894628
0.0005894628
0.0005894628
0.0005894628
0.0005894628
0.0005894628
0.0005894628
0.0005894628
0.0005894628
0.0005894628
0.0005894628
0.0005894628
0.0005894628
0.0005894628
0.0005894628
0.0005894628
0.0005894628
0.0005894628
0.0005894628
0.0005894628
0.0005894628
0.0005894628
0.0005894628
0.0005894628
0.0005894628
0.0005894628
0.0005894628
0.0005894628
0.0005894628
0.0005894628
0.0005894628
0.0005894628
0.0005894628
0.0005894628
0.0005894628


SCALARS b FLOAT 1
LOOKUP_TABLE default
0.02357851
0.02357851
0.02357851
0.02357851
0.02357851
0.02357851
0.02357851
0.02357851
0.02357851
0.02357851
0.02357851
0.02357851
0.02357851
0.02357851
0.02357851
0.02357851
0.02357851
0.02357851
0.02357851
0.02357851
0.02357851
0.02357851
0.02357851
0.02357851
0.02357851
0.02357851
0.02357851
0.02357851
0.02357851
0.02357851
0.02357851
0.02357851
0.02357851
0.02357851
0.02357851
0.02357851
0.02357851
0.02357851
0.02357851
0.02357851
0.02357851
0.02357851
0.02357851
0.02357851
0.02357851
0.02357851
0.02357851
0.02357851
0.02357851
0.02357851
0.02357851
0.02357851
0.02357851
0.02357851
0.02357851
0.02357851
0.02357851
0.02357851
0.02357851
0.02357851
0.02357851
0.02357851
0.02357851
0.02357851
0.02357851
0.02357851
0.02357851
0.02357851
0.02357851
0.02357851
0.02357851
0.02357851
0.02357851
0.02357851
0.02357851
0.02357851
0.02357851
0.02357851
0.02357851
0.02357851
0.02357851
0.02357851
0.02357851
0.02357851
0.02357851
0.02357851
0.02357851
0.02357851
0.02357851
0.02357851
0.02357851
0.02357851
0.02357851
0.02357851
0.02357851
0.02357851
0.02357851
0.02357851
0.02357851
0.02357851
0.02357851
0.02357851
0.02357851
0.02357851
0.02357851
0.02357851
0.02357851
0.02357851
0.02357851
0.02357851
0.02357851
0.02357851
0.02357851
0.02357851
0.02357851
0.02357851
0.02357851
0.02357851
0.02357851
0.02357851
0.02357851
0.02357851
0.02357851
0.02357851
0.02357851
0.02357851
0.02357851
0.02357851
0.02357851
0.02357851
0.02357851
0.02357851
0.02357851
0.02357851
0.02357851
0.02357851
0.02357851
0.02357851
0.02357851
0.02357851
0.02357851
0.02357851
0.02357851
0.02357851
0.02357851
0.02357851
0.02357851
0.02357851
0.02357851
0.02357851
0.02357851
0.02357851
0.02357851
0.02357851
0.02357851
0.02357851
0.02357851
0.02357851
0.02357851
0.02357851
0.02357851
0.02357851
0.02357851
0.02357851
0.02357851
0.02357851
0.02357851
0.02357851
0.02357851
0.02357851
0.02357851
0.02357851
0.02357851
0.02357851
0.02357851
0.02357851
0.02357851
0.02357851
0.02357851
0.02357851
0.02357851
0.02357851
0.02357851
0.02357851
0.02357851
0.02357851
0.02357851
0.02357851
0.02357851
0.02357851
0.02357851
0.02357851
0.02357851
0.02357851
0.02357851
0.02357851
0.02357851
0.02357851
0.02357851
0.02357851
0.02357851
0.02357851
0.02357851
0.02357851
0.02357851
0.02357851
0.02357851
0.02357851
0.02357851
0.02357851
0.02357851
0.02357851
0.02357851
0.02357851
0.02357851
0.02357851
0.02357851
0.02357851
0.02357851
0.02357851
0.02357851
0.02357851
0.02357851
0.02357851
0.02357851
0.02357851
0.02357851
0.02357851
0.02357851
0.02357851
0.02357851
0.02357851
0.02357851
0.02357851
0.02357851
0.02357851
0.02357851
0.02357851
0.02357851
0.02357851
0.02357851
0.02357851
0.02357851
0.02357851
0.02357851
0.02357851
0.02357851
0.02357851
0.02357851
0.02357851
0.02357851
0.02357851
0.02357851
0.02357851
0.02357851
0.02357851
0.02357851
0.02357851
0.02357851
0.02357851
0.02357851
0.02357851
0.02357851
0.02357851
0.02357851
0.02357851
0.02357851
0.02357851
0.02357851
0.02357851
0.02357851
0.02357851
0.02357851
0.02357851
0.02357851
0.02357851
0.02357851
0.02357851
0.02357851
0.02357851
0.02357851
0.02357851
0.02357851
0.02357851
0.02357851
0.02357851
0.02357851
0.02357851
0.02357851
0.02357851
0.02357851
0.02357851
0.02357851
0.02357851
0.02357851
0.02357851
0.02357851
0.02357851
0.02357851
0.02357851
0.02357851
0.02357851
0.02357851
0.02357851
0.02357851
0.02357851
0.02357851
0.02357851
0.02357851
0.02357851
0.02357851
0.02357851
0.02357851
0.02357851
0.02357851
0.02357851
0.02357851
0.02357851
0.02357851
0.02357851
0.02357851
0.02357851
0.02357851
0.02357851
0.02357851
0.02357851
0.02357851
0.02357851
0.02357851
0.02357851
0.02357851
0.02357851
0.02357851
0.02357851
0.02357851
0.02357851
0.02357851
0.02357851
0.02357851
0.02357851
0.02357851
0.02357851
0.02357851
0.02357851
0.02357851
0.02357851
0.02357851
0.02357851
0.02357851
0.02357851


VECTORS d1 FLOAT
0 -0.003141587 0.9999951
-0.0006332716 0.01801231 0.9998376
-0.002992491 0.03919237 0.9992272
-0.006929259 0.06041769 0.9981491
-0.01228024 0.08169296 0.9965819
-0.01889014 0.1030112 0.9945008
-0.02662077 0.1243571 0.9918804
-0.03535212 0.1457103 0.9886955
-0.04498023 0.1670468 0.9849224
-0.05541437 0.1883406 0.9805392
-0.06657441 0.2095644 0.9755258
-0.07838861 0.23069 0.9698646
-0.09079192 0.2516888 0.9635401
-0.1037246 0.2725319 0.9565394
-0.1171313 0.2931904 0.9488518
-0.1309601 0.3136357 0.9404691
-0.145162 0.3338393 0.9313857
-0.1596904 0.3537734 0.9215983
-0.174501 0.3734105 0.9111059
-0.1895511 0.392724 0.8999101
-0.2047999 0.4116879 0.8880147
-0.2202077 0.4302771 0.8754257
-0.2357367 0.4484675 0.8621514
-0.2513499 0.4662362 0.8482022
-0.267012 0.4835612 0.8335905
-0.2826888 0.5004218 0.8183307
-0.2983472 0.5167986 0.8024389
-0.3139555 0.5326736 0.7859331
-0.3294832 0.54803 0.7688329
-0.3449012 0.5628525 0.7511593
-0.3601814 0.5771274 0.7329347
-0.3752972 0.5908424 0.714183
-0.3902232 0.6039866 0.6949288
-0.4049354 0.6165508 0.6751981
-0.4194113 0.6285271 0.6550175
-0.4336294 0.6399092 0.6344144
-0.4475699 0.6506925 0.613417
-0.4612143 0.6608736 0.5920536
-0.4745453 0.6704506 0.5703531
-0.4875473 0.6794231 0.5483447
-0.5002057 0.687792 0.5260574
-0.5125076 0.6955595 0.5035205
-0.5244414 0.7027291 0.480763
-0.5359965 0.7093056 0.4578137
-0.5471639 0.7152947 0.4347012
-0.557936 0.7207034 0.4114536
-0.568306 0.7255397 0.3880984
-0.5782687 0.7298126 0.3646627
-0.5878199 0.7335318 0.3411729
-0.5969564 0.7367079 0.3176546
-0.6056764 0.7393524 0.2941327
-0.6139789 0.7414773 0.2706312
-0.6218639 0.7430953 0.2471735
-0.6293324 0.7442194 0.2237817
-0.6363862 0.7448634 0.2004773
-0.643028 0.7450414 0.1772806
-0.6492612 0.7447676 0.1542112
-0.6550902 0.7440568 0.1312873
-0.6605196 0.7429239 0.1085265
-0.6655551 0.7413838 0.0859452
-0.6702026 0.7394517 0.06355884
-0.6744688 0.7371427 0.04138187
-0.6783607 0.7344721 0.01942773
-0.6818859 0.731455 -0.002291064
-0.6850522 0.7281063 -0.02376298
-0.6878678 0.7244411 -0.0449774
-0.6903412 0.7204741 -0.06592464
-0.6924812 0.7162199 -0.08659586
-0.6942969 0.7116927 -0.1069831
-0.6957973 0.7069066 -0.1270792
-0.6969918 0.7018755 -0.1468779
-0.6978899 0.6966129 -0.1663736
-0.698501 0.6911319 -0.1855615
-0.6988347 0.6854454 -0.2044373
-0.6989007 0.6795659 -0.2229978
-0.6987085 0.6735055 -0.24124
-0.6982677 0.6672761 -0.2591617
-0.6975879 0.660889 -0.2767613
-0.6966785 0.6543553 -0.2940377
-0.695549 0.6476855 -0.3109903
-0.6942087 0.64089 -0.327619
-0.6926668 0.6339787 -0.3439241
-0.6909323 0.6269609 -0.3599064
-0.6890142 0.6198458 -0.375567
-0.6869214 0.6126421 -0.3909074
-0.6846625 0.6053582 -0.4059295
-0.6822459 0.598002 -0.4206353
-0.6796801 0.5905811 -0.4350274
-0.6769732 0.5831029 -0.4491083
-0.6741332 0.5755741 -0.4628811
-0.6711678 0.5680014 -0.4763488
-0.6680847 0.560391 -0.4895148
-0.6648914 0.5527487 -0.5023826
-0.6615951 0.5450802 -0.5149558
-0.6582029 0.5373907 -0.5272383
-0.6547215 0.5296852 -0.539234
-0.6511578 0.5219684 -0.5509468
-0.6475183 0.5142448 -0.562381
-0.6438092 0.5065184 -0.5735406
-0.6400367 0.4987931 -0.5844301
-0.6362068 0.4910725 -0.5950535
-0.6323252 0.4833601 -0.6054154
-0.6283975 0.475659 -0.6155201
-0.6244292 0.4679722 -0.625372
-0.6204256 0.4603023 -0.6349755
-0.6163916 0.4526519 -0.644335
-0.6123323 0.4450233 -0.653455
-0.6082524 0.4374186 -0.6623397
-0.6041565 0.4298399 -0.6709937
-0.6000492 0.4222888 -0.6794212
-0.5959346 0.414767 -0.6876266
-0.5918169 0.407276 -0.6956141
-0.5877003 0.3998171 -0.703388
-0.5835885 0.3923915 -0.7109524
-0.5794853 0.3850002 -0.7183116
-0.5753944 0.3776441 -0.7254697
-0.5713191 0.3703241 -0.7324306
-0.567263 0.3630408 -0.7391983
-0.5632292 0.3557948 -0.7457768
-0.5592208 0.3485865 -0.7521699
-0.555241 0.3414164 -0.7583814
-0.5512925 0.3342848 -0.764415
-0.5473782 0.3271917 -0.7702744
-0.5435009 0.3201374 -0.7759632
-0.539663 0.3131219 -0.7814848
-0.5358672 0.3061452 -0.7868428
-0.5321157 0.299207 -0.7920404
-0.5284111 0.2923074 -0.797081
-0.5247554 0.285446 -0.8019678
-0.5211508 0.2786225 -0.806704
-0.5175995 0.2718367 -0.8112925
-0.5141033 0.2650882 -0.8157365
-0.5106643 0.2583764 -0.8200388
-0.5072842 0.251701 -0.8242022
-0.5039649 0.2450613 -0.8282296
-0.500708 0.238457 -0.8321237
-0.4975151 0.2318873 -0.8358869
-0.4943879 0.2253516 -0.839522
-0.4913279 0.2188493 -0.8430314
-0.4883364 0.2123797 -0.8464174
-0.4854149 0.205942 -0.8496824
-0.4825648 0.1995357 -0.8528287
-0.4797872 0.1931598 -0.8558584
-0.4770834 0.1868136 -0.8587736
-0.4744546 0.1804963 -0.8615764
-0.471902 0.1742072 -0.8642687
-0.4694265 0.1679453 -0.8668525
-0.4670291 0.1617098 -0.8693295
-0.464711 0.1554999 -0.8717015
-0.462473 0.1493147 -0.8739702
-0.460316 0.1431533 -0.8761372
-0.4582408 0.1370148 -0.878204
-0.4562483 0.1308983 -0.8801722
-0.4543392 0.1248029 -0.8820432
-0.4525142 0.1187276 -0.8838182
-0.4507741 0.1126716 -0.8854986
-0.4491194 0.106634 -0.8870857
-0.4475508 0.1006137 -0.8885804
-0.4460688 0.09460981 -0.889984
-0.4446741 0.08862144 -0.8912975
-0.443367 0.08264759 -0.8925218
-0.4421481 0.07668731 -0.8936577
-0.4410177 0.07073966 -0.8947063
-0.4399763 0.06480366 -0.8956681
-0.4390243 0.05887835 -0.8965439
-0.438162 0.05296276 -0.8973344
-0.4373896 0.04705593 -0.8980401
-0.4367075 0.04115689 -0.8986616
-0.4361158 0.03526467 -0.8991993
-0.4356149 0.02937829 -0.8996536
-0.4352048 0.02349678 -0.9000248
-0.4348857 0.01761918 -0.9003133
-0.4346576 0.01174449 -0.9005192
-0.4345208 0.005871759 -0.9006427
-0.4344752 2.858269e-13 -0.9006838
-0.4345208 -0.005871759 -0.9006427
-0.4346576 -0.01174449 -0.9005192
-0.4348857 -0.01761918 -0.9003133
-0.4352048 -0.02349678 -0.9000248
-0.4356149 -0.02937829 -0.8996536
-0.4361158 -0.03526467 -0.8991993
-0.4367075 -0.04115689 -0.8986616
-0.4373896 -0.04705593 -0.8980401
-0.438162 -0.05296276 -0.8973344
-0.4390243 -0.05887835 -0.8965439
-0.4399763 -0.06480366 -0.8956681
-0.4410177 -0.07073966 -0.8947063
-0.4421481 -0.07668731 -0.8936577
-0.443367 -0.08264759 -0.8925218
-0.4446741 -0.08862144 -0.8912975
-0.4460688 -0.09460981 -0.889984
-0.4475508 -0.1006137 -0.8885804
-0.4491194 -0.106634 -0.8870857
-0.4507741 -0.1126716 -0.8854986
-0.4525142 -0.1187276 -0.8838182
-0.4543392 -0.1248029 -0.8820432
-0.4562483 -0.1308983 -0.8801722
-0.4582408 -0.1370148 -0.878204
-0.460316 -0.1431533 -0.8761372
-0.462473 -0.1493147 -0.8739702
-0.464711 -0.1554999 -0.8717015
-0.4670291 -0.1617098 -0.8693295
-0.4694265 -0.1679453 -0.8668525
-0.471902 -0.1742072 -0.8642687
-0.4744546 -0.1804963 -0.8615764
-0.4770834 -0.1868136 -0.8587736
-0.4797872 -0.1931598 -0.8558584
-0.4825648 -0.1995357 -0.8528287
-0.4854149 -0.205942 -0.8496824
-0.4883364 -0.2123797 -0.8464174
-0.4913279 -0.2188493 -0.8430314
-0.4943879 -0.2253516 -0.839522
-0.4975151 -0.2318873 -0.8358869
-0.500708 -0.238457 -0.8321237
-0.5039649 -0.2450613 -0.8282296
-0.5072842 -0.251701 -0.8242022
-0.5106643 -0.2583764 -0.8200388
-0.5141033 -0.2650882 -0.8157365
-0.5175995 -0.2718367 -0.8112925
-0.5211508 -0.2786225 -0.806704
-0.5247554 -0.285446 -0.8019678
-0.5284111 -0.2923074 -0.797081
-0.5321157 -0.299207 -0.7920404
-0.5358672 -0.3061452 -0.7868428
-0.539663 -0.3131219 -0.7814848
-0.5435009 -0.3201374 -0.7759632
-0.5473782 -0.3271917 -0.7702744
-0.5512925 -0.3342848 -0.764415
-0.555241 -0.3414164 -0.7583814