# vtk DataFile Version 2.0
Written badly by Kevin Korner
ASCII
DATASET POLYDATA
POINTS 350 FLOAT
0 0 0
0.00286533 0 0
0.005730525 2.548409e-05 1.093763e-05
0.008595318 7.6491e-05 3.266587e-05
0.01145944 0.0001530559 6.503709e-05
0.01432263 0.0002552103 0.0001079031
0.01718461 0.0003829824 0.0001611152
0.02004513 0.0005363966 0.0002245241
0.02290391 0.000715474 0.0002979802
0.0257607 0.0009202322 0.0003813333
0.02861523 0.001150685 0.0004744328
0.03146724 0.001406843 0.0005771279
0.03431647 0.001688715 0.0006892673
0.03716265 0.001996302 0.0008106993
0.04000553 0.002329607 0.0009412722
0.04284485 0.002688626 0.001080834
0.04568035 0.003073353 0.001229232
0.04851178 0.003483778 0.001386313
0.05133888 0.00391989 0.001551926
0.0541614 0.004381671 0.001725917
0.05697908 0.004869103 0.001908133
0.05979167 0.005382163 0.002098421
0.06259892 0.005920826 0.002296629
0.06540059 0.006485063 0.002502602
0.06819642 0.007074843 0.002716188
0.07098616 0.00769013 0.002937234
0.07376957 0.008330887 0.003165586
0.07654642 0.008997072 0.003401092
0.07931644 0.009688642 0.003643598
0.08207941 0.01040555 0.003892953
0.08483507 0.01114775 0.004149002
0.0875832 0.01191518 0.004411595
0.09032355 0.01270779 0.004680578
0.09305589 0.01352552 0.0049558
0.09577998 0.01436831 0.005237109
0.0984956 0.0152361 0.005524353
0.1012025 0.01612882 0.005817381
0.1039005 0.01704639 0.006116043
0.1065892 0.01798876 0.006420187
0.1092686 0.01895583 0.006729664
0.1119384 0.01994754 0.007044324
0.1145983 0.02096381 0.007364017
0.1172481 0.02200454 0.007688594
0.1198877 0.02306967 0.008017908
0.1225167 0.02415909 0.008351809
0.125135 0.02527271 0.008690151
0.1277423 0.02641045 0.009032786
0.1303385 0.02757222 0.009379567
0.1329233 0.0287579 0.009730349
0.1354965 0.0299674 0.01008499
0.138058 0.03120063 0.01044333
0.1406074 0.03245746 0.01080525
0.1431446 0.03373781 0.01117059
0.1456693 0.03504155 0.0115392
0.1481815 0.03636858 0.01191095
0.1506808 0.03771878 0.0122857
0.1531671 0.03909203 0.01266331
0.1556402 0.04048823 0.01304362
0.1580999 0.04190724 0.01342651
0.1605459 0.04334894 0.01381184
0.1629781 0.04481322 0.01419947
0.1653964 0.04629994 0.01458925
0.1678004 0.04780897 0.01498106
0.1701901 0.04934019 0.01537475
0.1725652 0.05089346 0.0157702
0.1749255 0.05246865 0.01616727
0.1772709 0.05406561 0.01656582
0.1796012 0.05568423 0.01696572
0.1819162 0.05732434 0.01736685
0.1842158 0.05898581 0.01776906
0.1864996 0.06066851 0.01817224
0.1887677 0.06237227 0.01857625
0.1910198 0.06409695 0.01898096
0.1932557 0.06584241 0.01938624
0.1954752 0.0676085 0.01979198
0.1976783 0.06939505 0.02019803
0.1998647 0.07120192 0.02060429
0.2020342 0.07302896 0.02101063
0.2041868 0.07487599 0.02141692
0.2063222 0.07674287 0.02182304
0.2084402 0.07862944 0.02222887
0.2105409 0.08053553 0.0226343
0.2126238 0.08246097 0.02303919
0.214689 0.08440561 0.02344345
0.2167363 0.08636928 0.02384695
0.2187655 0.08835181 0.02424957
0.2207765 0.09035302 0.0246512
0.222769 0.09237275 0.02505172
0.2247431 0.09441083 0.02545103
0.2266985 0.09646708 0.02584902
0.2286351 0.09854133 0.02624557
0.2305527 0.1006334 0.02664057
0.2324513 0.1027431 0.02703392
0.2343306 0.1048703 0.02742551
0.2361906 0.1070148 0.02781523
0.2380311 0.1091763 0.02820298
0.2398519 0.1113548 0.02858866
0.241653 0.11355 0.02897216
0.2434343 0.1157618 0.02935339
0.2451955 0.11799 0.02973224
0.2469366 0.1202343 0.03010861
0.2486575 0.1224946 0.0304824
0.250358 0.1247707 0.03085353
0.252038 0.1270624 0.03122189
0.2536974 0.1293696 0.03158739
0.2553361 0.1316919 0.03194994
0.256954 0.1340293 0.03230944
0.2585509 0.1363816 0.03266581
0.2601267 0.1387484 0.03301895
0.2616814 0.1411298 0.03336878
0.2632148 0.1435253 0.03371521
0.2647268 0.145935 0.03405815
0.2662173 0.1483584 0.03439752
0.2676863 0.1507956 0.03473324
0.2691336 0.1532461 0.03506522
0.2705591 0.15571 0.03539338
0.2719627 0.1581868 0.03571765
0.2733443 0.1606765 0.03603794
0.2747039 0.1631789 0.03635419
0.2760413 0.1656936 0.0366663
0.2773564 0.1682206 0.03697421
0.2786492 0.1707596 0.03727784
0.2799196 0.1733104 0.03757713
0.2811675 0.1758729 0.037872
0.2823927 0.1784467 0.03816238
0.2835953 0.1810317 0.0384482
0.2847752 0.1836276 0.0387294
0.2859322 0.1862344 0.03900591
0.2870662 0.1888516 0.03927766
0.2881773 0.1914792 0.0395446
0.2892654 0.194117 0.03980666
0.2903302 0.1967646 0.04006378
0.2913719 0.199422 0.0403159
0.2923903 0.2020888 0.04056297
0.2933854 0.2047649 0.04080492
0.294357 0.20745 0.0410417
0.2953052 0.210144 0.04127326
0.2962299 0.2128465 0.04149955
0.2971309 0.2155575 0.04172051
0.2980083 0.2182767 0.04193609
0.298862 0.2210038 0.04214625
0.2996919 0.2237387 0.04235093
0.300498 0.226481 0.0425501
0.3012802 0.2292307 0.0427437
0.3020385 0.2319875 0.0429317
0.3027728 0.2347511 0.04311404
0.3034831 0.2375214 0.0432907
0.3041693 0.2402981 0.04346163
0.3048314 0.243081 0.04362679
0.3054694 0.2458698 0.04378614
0.3060831 0.2486644 0.04393966
0.3066727 0.2514646 0.0440873
0.3072379 0.25427 0.04422904
0.3077788 0.2570806 0.04436484
0.3082954 0.2598959 0.04449467
0.3087876 0.262716 0.04461851
0.3092554 0.2655404 0.04473632
0.3096987 0.268369 0.04484809
0.3101175 0.2712016 0.04495378
0.3105119 0.2740379 0.04505337
0.3108818 0.2768777 0.04514685
0.311227 0.2797208 0.04523418
0.3115478 0.282567 0.04531536
0.3118439 0.285416 0.04539036
0.3121154 0.2882676 0.04545917
0.3123623 0.2911216 0.04552177
0.3125845 0.2939777 0.04557815
0.3127821 0.2968358 0.0456283
0.312955 0.2996956 0.0456722
0.3131033 0.3025568 0.04570985
0.3132268 0.3054193 0.04574124
0.3133257 0.3082828 0.04576635
0.3133998 0.3111471 0.0457852
0.3134492 0.314012 0.04579776
0.313474 0.3168772 0.04580404
0.313474 0.3197426 0.04580404
0.3134492 0.3226078 0.04579776
0.3133998 0.3254726 0.0457852
0.3133257 0.328337 0.04576635
0.3132268 0.3312005 0.04574124
0.3131033 0.334063 0.04570985
0.312955 0.3369242 0.0456722
0.3127821 0.339784 0.0456283
0.3125845 0.342642 0.04557815
0.3123623 0.3454982 0.04552177
0.3121154 0.3483522 0.04545917
0.3118439 0.3512038 0.04539036
0.3115478 0.3540528 0.04531536
0.311227 0.3568989 0.04523418
0.3108818 0.359742 0.04514685
0.3105119 0.3625819 0.04505337
0.3101175 0.3654182 0.04495378
0.3096987 0.3682508 0.04484809
0.3092554 0.3710794 0.04473632
0.3087876 0.3739038 0.04461851
0.3082954 0.3767238 0.04449467
0.3077788 0.3795392 0.04436484
0.3072379 0.3823498 0.04422904
0.3066727 0.3851552 0.0440873
0.3060831 0.3879553 0.04393966
0.3054694 0.39075 0.04378614
0.3048314 0.3935388 0.04362679
0.3041693 0.3963217 0.04346163
0.3034831 0.3990984 0.0432907
0.3027728 0.4018687 0.04311404
0.3020385 0.4046323 0.0429317
0.3012802 0.4073891 0.0427437
0.300498 0.4101387 0.0425501
0.2996919 0.4128811 0.04235093
0.298862 0.415616 0.04214625
0.2980083 0.4183431 0.04193609
0.2971309 0.4210623 0.04172051
0.2962299 0.4237732 0.04149955
0.2953052 0.4264758 0.04127326
0.294357 0.4291698 0.0410417
0.2933854 0.4318549 0.04080492
0.2923903 0.434531 0.04056297
0.2913719 0.4371978 0.0403159
0.2903302 0.4398552 0.04006378
0.2892654 0.4425028 0.03980666
0.2881773 0.4451405 0.0395446
0.2870662 0.4477681 0.03927766
0.2859322 0.4503854 0.03900591
0.2847752 0.4529921 0.0387294
0.2835953 0.4555881 0.0384482
0.2823927 0.4581731 0.03816238
0.2811675 0.4607469 0.037872
0.2799196 0.4633093 0.03757713
0.2786492 0.4658601 0.03727784
0.2773564 0.4683992 0.03697421
0.2760413 0.4709261 0.0366663
0.2747039 0.4734409 0.03635419
0.2733443 0.4759433 0.03603794
0.2719627 0.478433 0.03571765
0.2705591 0.4809098 0.03539338
0.2691336 0.4833736 0.03506522
0.2676863 0.4858242 0.03473324
0.2662173 0.4882613 0.03439752
0.2647268 0.4906848 0.03405815
0.2632148 0.4930944 0.03371521
0.2616814 0.49549 0.03336878
0.2601267 0.4978713 0.03301895
0.2585509 0.5002382 0.03266581
0.256954 0.5025904 0.03230944
0.2553361 0.5049278 0.03194994
0.2536974 0.5072502 0.03158739
0.252038 0.5095574 0.03122189
0.250358 0.5118491 0.03085353
0.2486575 0.5141252 0.0304824
0.2469366 0.5163855 0.03010861
0.2451955 0.5186298 0.02973224
0.2434343 0.520858 0.02935339
0.241653 0.5230697 0.02897216
0.2398519 0.525265 0.02858866
0.2380311 0.5274435 0.02820298
0.2361906 0.529605 0.02781523
0.2343306 0.5317495 0.02742551
0.2324513 0.5338767 0.02703392
0.2305527 0.5359864 0.02664057
0.2286351 0.5380784 0.02624557
0.2266985 0.5401527 0.02584902
0.2247431 0.5422089 0.02545103
0.222769 0.544247 0.02505172
0.2207765 0.5462668 0.0246512
0.2187655 0.548268 0.02424957
0.2167363 0.5502505 0.02384695
0.214689 0.5522142 0.02344345
0.2126238 0.5541588 0.02303919
0.2105409 0.5560842 0.0226343
0.2084402 0.5579903 0.02222887
0.2063222 0.5598769 0.02182304
0.2041868 0.5617438 0.02141692
0.2020342 0.5635908 0.02101063
0.1998647 0.5654178 0.02060429
0.1976783 0.5672247 0.02019803
0.1954752 0.5690113 0.01979198
0.1932557 0.5707774 0.01938624
0.1910198 0.5725228 0.01898096
0.1887677 0.5742475 0.01857625
0.1864996 0.5759513 0.01817224
0.1842158 0.577634 0.01776906
0.1819162 0.5792954 0.01736685
0.1796012 0.5809355 0.01696572
0.1772709 0.5825542 0.01656582
0.1749255 0.5841511 0.01616727
0.1725652 0.5857263 0.0157702
0.1701901 0.5872796 0.01537475
0.1678004 0.5888108 0.01498106
0.1653964 0.5903198 0.01458925
0.1629781 0.5918066 0.01419947
0.1605459 0.5932708 0.01381184
0.1580999 0.5947125 0.01342651
0.1556402 0.5961315 0.01304362
0.1531671 0.5975277 0.01266331
0.1506808 0.598901 0.0122857
0.1481815 0.6002512 0.01191095
0.1456693 0.6015782 0.0115392
0.1431446 0.602882 0.01117059
0.1406074 0.6041623 0.01080525
0.138058 0.6054191 0.01044333
0.1354965 0.6066524 0.01008499
0.1329233 0.6078619 0.009730349
0.1303385 0.6090476 0.009379567
0.1277423 0.6102093 0.009032786
0.125135 0.6113471 0.008690151
0.1225167 0.6124607 0.008351809
0.1198877 0.6135501 0.008017908
0.1172481 0.6146152 0.007688594
0.1145983 0.615656 0.007364017
0.1119384 0.6166722 0.007044324
0.1092686 0.6176639 0.006729664
0.1065892 0.618631 0.006420187
0.1039005 0.6195734 0.006116043
0.1012025 0.620491 0.005817381
0.0984956 0.6213837 0.005524353
0.09577998 0.6222515 0.005237109
0.09305589 0.6230943 0.0049558
0.09032355 0.623912 0.004680578
0.0875832 0.6247046 0.004411595
0.08483507 0.625472 0.004149002
0.08207941 0.6262142 0.003892953
0.07931644 0.6269311 0.003643598
0.07654642 0.6276227 0.003401092
0.07376957 0.6282889 0.003165586
0.07098616 0.6289296 0.002937234
0.06819642 0.6295449 0.002716188
0.06540059 0.6301347 0.002502602
0.06259892 0.6306989 0.002296629
0.05979167 0.6312376 0.002098421
0.05697908 0.6317507 0.001908133
0.0541614 0.6322381 0.001725917
0.05133888 0.6326999 0.001551926
0.04851178 0.633136 0.001386313
0.04568035 0.6335464 0.001229232
0.04284485 0.6339311 0.001080834
0.04000553 0.6342902 0.0009412722
0.03716265 0.6346235 0.0008106993
0.03431647 0.6349311 0.0006892673
0.03146724 0.6352129 0.0005771279
0.02861523 0.6354691 0.0004744328
0.0257607 0.6356995 0.0003813333
0.02290391 0.6359043 0.0002979802
0.02004513 0.6360834 0.0002245241
0.01718461 0.6362368 0.0001611152
0.01432263 0.6363646 0.0001079031
0.01145944 0.6364667 6.503709e-05
0.008595318 0.6365433 3.266587e-05
0.005730525 0.6365943 1.093763e-05
0.00286533 0.6366198 0
0 0.6366198 0

LINES 349 1047
2 0 1
2 1 2
2 2 3
2 3 4
2 4 5
2 5 6
2 6 7
2 7 8
2 8 9
2 9 10
2 10 11
2 11 12
2 12 13
2 13 14
2 14 15
2 15 16
2 16 17
2 17 18
2 18 19
2 19 20
2 20 21
2 21 22
2 22 23
2 23 24
2 24 25
2 25 26
2 26 27
2 27 28
2 28 29
2 29 30
2 30 31
2 31 32
2 32 33
2 33 34
2 34 35
2 35 36
2 36 37
2 37 38
2 38 39
2 39 40
2 40 41
2 41 42
2 42 43
2 43 44
2 44 45
2 45 46
2 46 47
2 47 48
2 48 49
2 49 50
2 50 51
2 51 52
2 52 53
2 53 54
2 54 55
2 55 56
2 56 57
2 57 58
2 58 59
2 59 60
2 60 61
2 61 62
2 62 63
2 63 64
2 64 65
2 65 66
2 66 67
2 67 68
2 68 69
2 69 70
2 70 71
2 71 72
2 72 73
2 73 74
2 74 75
2 75 76
2 76 77
2 77 78
2 78 79
2 79 80
2 80 81
2 81 82
2 82 83
2 83 84
2 84 85
2 85 86
2 86 87
2 87 88
2 88 89
2 89 90
2 90 91
2 91 92
2 92 93
2 93 94
2 94 95
2 95 96
2 96 97
2 97 98
2 98 99
2 99 100
2 100 101
2 101 102
2 102 103
2 103 104
2 104 105
2 105 106
2 106 107
2 107 108
2 108 109
2 109 110
2 110 111
2 111 112
2 112 113
2 113 114
2 114 115
2 115 116
2 116 117
2 117 118
2 118 119
2 119 120
2 120 121
2 121 122
2 122 123
2 123 124
2 124 125
2 125 126
2 126 127
2 127 128
2 128 129
2 129 130
2 130 131
2 131 132
2 132 133
2 133 134
2 134 135
2 135 136
2 136 137
2 137 138
2 138 139
2 139 140
2 140 141
2 141 142
2 142 143
2 143 144
2 144 145
2 145 146
2 146 147
2 147 148
2 148 149
2 149 150
2 150 151
2 151 152
2 152 153
2 153 154
2 154 155
2 155 156
2 156 157
2 157 158
2 158 159
2 159 160
2 160 161
2 161 162
2 162 163
2 163 164
2 164 165
2 165 166
2 166 167
2 167 168
2 168 169
2 169 170
2 170 171
2 171 172
2 172 173
2 173 174
2 174 175
2 175 176
2 176 177
2 177 178
2 178 179
2 179 180
2 180 181
2 181 182
2 182 183
2 183 184
2 184 185
2 185 186
2 186 187
2 187 188
2 188 189
2 189 190
2 190 191
2 191 192
2 192 193
2 193 194
2 194 195
2 195 196
2 196 197
2 197 198
2 198 199
2 199 200
2 200 201
2 201 202
2 202 203
2 203 204
2 204 205
2 205 206
2 206 207
2 207 208
2 208 209
2 209 210
2 210 211
2 211 212
2 212 213
2 213 214
2 214 215
2 215 216
2 216 217
2 217 218
2 218 219
2 219 220
2 220 221
2 221 222
2 222 223
2 223 224
2 224 225
2 225 226
2 226 227
2 227 228
2 228 229
2 229 230
2 230 231
2 231 232
2 232 233
2 233 234
2 234 235
2 235 236
2 236 237
2 237 238
2 238 239
2 239 240
2 240 241
2 241 242
2 242 243
2 243 244
2 244 245
2 245 246
2 246 247
2 247 248
2 248 249
2 249 250
2 250 251
2 251 252
2 252 253
2 253 254
2 254 255
2 255 256
2 256 257
2 257 258
2 258 259
2 259 260
2 260 261
2 261 262
2 262 263
2 263 264
2 264 265
2 265 266
2 266 267
2 267 268
2 268 269
2 269 270
2 270 271
2 271 272
2 272 273
2 273 274
2 274 275
2 275 276
2 276 277
2 277 278
2 278 279
2 279 280
2 280 281
2 281 282
2 282 283
2 283 284
2 284 285
2 285 286
2 286 287
2 287 288
2 288 289
2 289 290
2 290 291
2 291 292
2 292 293
2 293 294
2 294 295
2 295 296
2 296 297
2 297 298
2 298 299
2 299 300
2 300 301
2 301 302
2 302 303
2 303 304
2 304 305
2 305 306
2 306 307
2 307 308
2 308 309
2 309 310
2 310 311
2 311 312
2 312 313
2 313 314
2 314 315
2 315 316
2 316 317
2 317 318
2 318 319
2 319 320
2 320 321
2 321 322
2 322 323
2 323 324
2 324 325
2 325 326
2 326 327
2 327 328
2 328 329
2 329 330
2 330 331
2 331 332
2 332 333
2 333 334
2 334 335
2 335 336
2 336 337
2 337 338
2 338 339
2 339 340
2 340 341
2 341 342
2 342 343
2 343 344
2 344 345
2 345 346
2 346 347
2 347 348
2 348 349


POINT_DATA 350
SCALARS a FLOAT 1
LOOKUP_TABLE default
0.0005894628
0.0005894628
0.0005894628
0.0005894628
0.0005894628
0.0005894628
0.0005894628
0.0005894628
0.0005894628
0.0005894628
0.0005894628
0.0005894628
0.0005894628
0.0005894628
0.0005894628
0.0005894628
0.0005894628
0.0005894628
0.0005894628
0.0005894628
0.0005894628
0.0005894628
0.0005894628
0.0005894628
0.0005894628
0.0005894628
0.0005894628
0.0005894628
0.0005894628
0.0005894628
0.0005894628
0.0005894628
0.0005894628
0.0005894628
0.0005894628
0.0005894628
0.0005894628
0.0005894628
0.0005894628
0.0005894628
0.0005894628
0.0005894628
0.0005894628
0.0005894628
0.0005894628
0.0005894628
0.0005894628
0.0005894628
0.0005894628
0.0005894628
0.0005894628
0.0005894628
0.0005894628
0.0005894628
0.0005894628
0.0005894628
0.0005894628
0.0005894628
0.0005894628
0.0005894628
0.0005894628
0.0005894628
0.0005894628
0.0005894628
0.0005894628
0.0005894628
0.0005894628
0.0005894628
0.0005894628
0.0005894628
0.0005894628
0.0005894628
0.0005894628
0.0005894628
0.0005894628
0.0005894628
0.0005894628
0.0005894628
0.0005894628
0.0005894628
0.0005894628
0.0005894628
0.0005894628
0.0005894628
0.0005894628
0.0005894628
0.0005894628
0.0005894628
0.0005894628
0.0005894628
0.0005894628
0.0005894628
0.0005894628
0.0005894628
0.0005894628
0.0005894628
0.0005894628
0.0005894628
0.0005894628
0.0005894628
0.0005894628
0.0005894628
0.0005894628
0.0005894628
0.0005894628
0.0005894628
0.0005894628
0.0005894628
0.0005894628
0.0005894628
0.0005894628
0.0005894628
0.0005894628
0.0005894628
0.0005894628
0.0005894628
0.0005894628
0.0005894628
0.0005894628
0.0005894628
0.0005894628
0.0005894628
0.0005894628
0.0005894628
0.0005894628
0.0005894628
0.0005894628
0.0005894628
0.0005894628
0.0005894628
0.0005894628
0.0005894628
0.0005894628
0.0005894628
0.0005894628
0.0005894628
0.0005894628
0.0005894628
0.0005894628
0.0005894628
0.0005894628
0.0005894628
0.0005894628
0.0005894628
0.0005894628
0.0005894628
0.0005894628
0.0005894628
0.0005894628
0.0005894628
0.0005894628
0.0005894628
0.0005894628
0.0005894628
0.0005894628
0.0005894628
0.0005894628
0.0005894628
0.0005894628
0.0005894628
0.0005894628
0.0005894628
0.0005894628
0.0005894628
0.0005894628
0.0005894628
0.0005894628
0.0005894628
0.0005894628
0.0005894628
0.0005894628
0.0005894628
0.0005894628
0.0005894628
0.0005894628
0.0005894628
0.0005894628
0.0005894628
0.0005894628
0.0005894628
0.0005894628
0.0005894628
0.0005894628
0.0005894628
0.0005894628
0.0005894628
0.0005894628
0.0005894628
0.0005894628
0.0005894628
0.0005894628
0.0005894628
0.0005894628
0.0005894628
0.0005894628
0.0005894628
0.0005894628
0.0005894628
0.0005894628
0.0005894628
0.0005894628
0.0005894628
0.0005894628
0.0005894628
0.0005894628
0.0005894628
0.0005894628
0.0005894628
0.0005894628
0.0005894628
0.0005894628
0.0005894628
0.0005894628
0.0005894628
0.0005894628
0.0005894628
0.0005894628
0.0005894628
0.0005894628
0.0005894628
0.0005894628
0.0005894628
0.0005894628
0.0005894628
0.0005894628
0.0005894628
0.0005894628
0.0005894628
0.0005894628
0.0005894628
0.0005894628
0.0005894628
0.0005894628
0.0005894628
0.0005894628
0.0005894628
0.0005894628
0.0005894628
0.0005894628
0.0005894628
0.0005894628
0.0005894628
0.0005894628
0.0005894628
0.0005894628
0.0005894628
0.0005894628
0.0005894628
0.0005894628
0.0005894628
0.0005894628
0.0005894628
0.0005894628
0.0005894628
0.0005894628
0.0005894628
0.0005894628
0.0005894628
0.0005894628
0.0005894628
0.0005894628
0.0005894628
0.0005894628
0.0005894628
0.0005894628
0.0005894628
0.0005894628
0.0005894628
0.0005894628
0.0005894628
0.0005894628
0.0005894628
0.0005894628
0.0005894628
0.0005894628
0.0005894628
0.0005894628
0.0005894628
0.0005894628
0.0005894628
0.0005894628
0.0005894628
0.0005894628
0.0005894628
0.0005894628
0.0005894628
0.0005894628
0.0005894628
0.0005894628
0.0005894628
0.0005894628
0.0005894628
0.0005894628
0.0005894628
0.0005894628
0.0005894628
0.0005894628
0.0005894628
0.0005894628
0.0005894628
0.0005894628
0.0005894628
0.0005894628
0.0005894628
0.0005894628
0.0005894628
0.0005894628
0.0005894628
0.0005894628
0.0005894628
0.0005894628
0.0005894628
0.0005894628
0.0005894628
0.0005894628
0.0005894628
0.0005894628
0.0005894628
0.0005894628
0.0005894628
0.0005894628
0.0005894628
0.0005894628
0.0005894628
0.0005894628
0.0005894628
0.0005894628
0.0005894628
0.0005894628
0.0005894628
0.0005894628
0.0005894628
0.0005894628
0.0005894628
0.0005894628
0.0005894628
0.0005894628
0.0005894628
0.0005894628
0.0005894628
0.0005894628
0.0005894628
0.0005894628
0.0005894628
0.0005894628
0.0005894628
0.0005894628
0.0005894628
0.0005894628
0.0005894628


SCALARS b FLOAT 1
LOOKUP_TABLE default
0.02357851
0.02357851
0.02357851
0.02357851
0.02357851
0.02357851
0.02357851
0.02357851
0.02357851
0.02357851
0.02357851
0.02357851
0.02357851
0.02357851
0.02357851
0.02357851
0.02357851
0.02357851
0.02357851
0.02357851
0.02357851
0.02357851
0.02357851
0.02357851
0.02357851
0.02357851
0.02357851
0.02357851
0.02357851
0.02357851
0.02357851
0.02357851
0.02357851
0.02357851
0.02357851
0.02357851
0.02357851
0.02357851
0.02357851
0.02357851
0.02357851
0.02357851
0.02357851
0.02357851
0.02357851
0.02357851
0.02357851
0.02357851
0.02357851
0.02357851
0.02357851
0.02357851
0.02357851
0.02357851
0.02357851
0.02357851
0.02357851
0.02357851
0.02357851
0.02357851
0.02357851
0.02357851
0.02357851
0.02357851
0.02357851
0.02357851
0.02357851
0.02357851
0.02357851
0.02357851
0.02357851
0.02357851
0.02357851
0.02357851
0.02357851
0.02357851
0.02357851
0.02357851
0.02357851
0.02357851
0.02357851
0.02357851
0.02357851
0.02357851
0.02357851
0.02357851
0.02357851
0.02357851
0.02357851
0.02357851
0.02357851
0.02357851
0.02357851
0.02357851
0.02357851
0.02357851
0.02357851
0.02357851
0.02357851
0.02357851
0.02357851
0.02357851
0.02357851
0.02357851
0.02357851
0.02357851
0.02357851
0.02357851
0.02357851
0.02357851
0.02357851
0.02357851
0.02357851
0.02357851
0.02357851
0.02357851
0.02357851
0.02357851
0.02357851
0.02357851
0.02357851
0.02357851
0.02357851
0.02357851
0.02357851
0.02357851
0.02357851
0.02357851
0.02357851
0.02357851
0.02357851
0.02357851
0.02357851
0.02357851
0.02357851
0.02357851
0.02357851
0.02357851
0.02357851
0.02357851
0.02357851
0.02357851
0.02357851
0.02357851
0.02357851
0.02357851
0.02357851
0.02357851
0.02357851
0.02357851
0.02357851
0.02357851
0.02357851
0.02357851
0.02357851
0.02357851
0.02357851
0.02357851
0.02357851
0.02357851
0.02357851
0.02357851
0.02357851
0.02357851
0.02357851
0.02357851
0.02357851
0.02357851
0.02357851
0.02357851
0.02357851
0.02357851
0.02357851
0.02357851
0.02357851
0.02357851
0.02357851
0.02357851
0.02357851
0.02357851
0.02357851
0.02357851
0.02357851
0.02357851
0.02357851
0.02357851
0.02357851
0.02357851
0.02357851
0.02357851
0.02357851
0.02357851
0.02357851
0.02357851
0.02357851
0.02357851
0.02357851
0.02357851
0.02357851
0.02357851
0.02357851
0.02357851
0.02357851
0.02357851
0.02357851
0.02357851
0.02357851
0.02357851
0.02357851
0.02357851
0.02357851
0.02357851
0.02357851
0.02357851
0.02357851
0.02357851
0.02357851
0.02357851
0.02357851
0.02357851
0.02357851
0.02357851
0.02357851
0.02357851
0.02357851
0.02357851
0.02357851
0.02357851
0.02357851
0.02357851
0.02357851
0.02357851
0.02357851
0.02357851
0.02357851
0.02357851
0.02357851
0.02357851
0.02357851
0.02357851
0.02357851
0.02357851
0.02357851
0.02357851
0.02357851
0.02357851
0.02357851
0.02357851
0.02357851
0.02357851
0.02357851
0.02357851
0.02357851
0.02357851
0.02357851
0.02357851
0.02357851
0.02357851
0.02357851
0.02357851
0.02357851
0.02357851
0.02357851
0.02357851
0.02357851
0.02357851
0.02357851
0.02357851
0.02357851
0.02357851
0.02357851
0.02357851
0.02357851
0.02357851
0.02357851
0.02357851
0.02357851
0.02357851
0.02357851
0.02357851
0.02357851
0.02357851
0.02357851
0.02357851
0.02357851
0.02357851
0.02357851
0.02357851
0.02357851
0.02357851
0.02357851
0.02357851
0.02357851
0.02357851
0.02357851
0.02357851
0.02357851
0.02357851
0.02357851
0.02357851
0.02357851
0.02357851
0.02357851
0.02357851
0.02357851
0.02357851
0.02357851
0.02357851
0.02357851
0.02357851
0.02357851
0.02357851
0.02357851
0.02357851
0.02357851
0.02357851
0.02357851
0.02357851
0.02357851
0.02357851
0.02357851
0.02357851
0.02357851
0.02357851
0.02357851
0.02357851
0.02357851
0.02357851
0.02357851
0.02357851
0.02357851
0.02357851
0.02357851
0.02357851
0.02357851
0.02357851
0.02357851
0.02357851
0.02357851
0.02357851
0.02357851
0.02357851
0.02357851
0.02357851
0.02357851
0.02357851
0.02357851
0.02357851
0.02357851
0.02357851


VECTORS d1 FLOAT
0 0.9177546 0.3971479
-0.009678481 0.9198571 0.3921343
-0.01934902 0.9218375 0.3870934
-0.02901039 0.9236961 0.3820262
-0.03866138 0.9254331 0.3769336
-0.04830078 0.9270488 0.3718166
-0.05792741 0.9285435 0.3666761
-0.06754008 0.9299175 0.3615131
-0.07713765 0.9311712 0.3563285
-0.08671896 0.9323048 0.3511233
-0.09628287 0.9333188 0.3458983
-0.1058283 0.9342135 0.3406547
-0.115354 0.9349892 0.3353931
-0.1248591 0.9356466 0.3301147
-0.1343423 0.9361858 0.3248204
-0.1438027 0.9366075 0.319511
-0.1532391 0.9369119 0.3141875
-0.1626506 0.9370998 0.3088508
-0.1720361 0.9371714 0.3035018
-0.1813946 0.9371273 0.2981415
-0.1907251 0.9369681 0.2927708
-0.2000267 0.9366942 0.2873905
-0.2092983 0.9363062 0.2820016
-0.218539 0.9358047 0.2766049
-0.2277479 0.9351902 0.2712014
-0.236924 0.9344633 0.2657919
-0.2460664 0.9336246 0.2603773
-0.2551743 0.9326748 0.2549585
-0.2642468 0.9316143 0.2495365
-0.2732829 0.9304439 0.2441119
-0.2822819 0.9291642 0.2386858
-0.2912429 0.9277758 0.2332589
-0.3001651 0.9262794 0.2278321
-0.3090476 0.9246756 0.2224063
-0.3178897 0.9229652 0.2169822
-0.3266906 0.9211489 0.2115608
-0.3354495 0.9192272 0.2061429
-0.3441657 0.917201 0.2007292
-0.3528385 0.915071 0.1953206
-0.361467 0.9128377 0.189918
-0.3700507 0.9105021 0.184522
-0.3785888 0.9080648 0.1791335
-0.3870805 0.9055266 0.1737533
-0.3955254 0.9028882 0.1683822
-0.4039226 0.9001504 0.163021
-0.4122716 0.8973139 0.1576703
-0.4205717 0.8943795 0.1523311
-0.4288223 0.891348 0.147004
-0.4370229 0.8882201 0.1416897
-0.4451727 0.8849967 0.1363891
-0.4532714 0.8816786 0.1311029
-0.4613181 0.8782664 0.1258317
-0.4693126 0.8747611 0.1205764
-0.4772541 0.8711635 0.1153376
-0.4851421 0.8674743 0.110116
-0.4929763 0.8636943 0.1049124
-0.5007559 0.8598244 0.09972734
-0.5084807 0.8558653 0.09456163
-0.51615 0.851818 0.08941591
-0.5237635 0.8476832 0.08429084
-0.5313206 0.8434618 0.0791871
-0.538821 0.8391546 0.07410533
-0.5462641 0.8347623 0.06904619
-0.5536496 0.830286 0.06401032
-0.5609771 0.8257263 0.05899835
-0.5682462 0.8210841 0.0540109
-0.5754565 0.8163603 0.0490486
-0.5826076 0.8115556 0.04411206
-0.5896991 0.8066711 0.03920188
-0.5967307 0.8017074 0.03431866
-0.6037021 0.7966654 0.02946299
-0.6106129 0.791546 0.02463545
-0.6174627 0.78635 0.01983662
-0.6242514 0.7810782 0.01506707
-0.6309785 0.7757315 0.01032735
-0.6376439 0.7703108 0.005618017
-0.6442471 0.7648169 0.0009396212
-0.6507879 0.7592505 -0.003707301
-0.6572661 0.7536127 -0.008322217
-0.6636813 0.7479041 -0.0129046
-0.6700334 0.7421257 -0.01745394
-0.6763221 0.7362783 -0.02196972
-0.6825472 0.7303627 -0.02645144
-0.6887084 0.7243798 -0.03089861
-0.6948055 0.7183303 -0.03531073
-0.7008383 0.7122152 -0.03968732
-0.7068067 0.7060353 -0.04402791
-0.7127103 0.6997914 -0.04833203
-0.7185491 0.6934843 -0.05259921
-0.7243229 0.6871149 -0.05682902
-0.7300314 0.6806839 -0.06102099
-0.7356745 0.6741923 -0.06517468
-0.7412521 0.6676408 -0.06928967
-0.746764 0.6610302 -0.07336552
-0.7522101 0.6543615 -0.07740182
-0.7575902 0.6476353 -0.08139816
-0.7629041 0.6408526 -0.08535411
-0.7681518 0.634014 -0.08926929
-0.7733332 0.6271205 -0.09314331
-0.778448 0.6201729 -0.09697576
-0.7834963 0.6131718 -0.1007663
-0.7884779 0.6061183 -0.1045145
-0.7933927 0.599013 -0.10822
-0.7982406 0.5918567 -0.1118825
-0.8030215 0.5846502 -0.1155016
-0.8077353 0.5773944 -0.1190769
-0.812382 0.5700901 -0.1226082
-0.8169615 0.5627379 -0.126095
-0.8214737 0.5553387 -0.129537
-0.8259186 0.5478933 -0.132934
-0.830296 0.5404024 -0.1362856
-0.834606 0.5328669 -0.1395914
-0.8388484 0.5252875 -0.1428513
-0.8430232 0.5176649 -0.1460648
-0.8471304 0.51 -0.1492317
-0.8511699 0.5022935 -0.1523517
-0.8551417 0.4945461 -0.1554245
-0.8590458 0.4867587 -0.1584498
-0.8628821 0.4789319 -0.1614274
-0.8666505 0.4710665 -0.164357
-0.8703511 0.4631634 -0.1672383
-0.8739838 0.4552232 -0.1700711
-0.8775486 0.4472466 -0.1728551
-0.8810455 0.4392344 -0.1755901
-0.8844745 0.4311874 -0.1782758
-0.8878355 0.4231063 -0.180912
-0.8911286 0.4149918 -0.1834985
-0.8943536 0.4068446 -0.1860351
-0.8975107 0.3986655 -0.1885215
-0.9005997 0.3904552 -0.1909576
-0.9036208 0.3822145 -0.193343
-0.9065739 0.3739439 -0.1956777
-0.9094589 0.3656444 -0.1979614
-0.9122759 0.3573165 -0.2001939
-0.9150249 0.348961 -0.2023751
-0.9177059 0.3405785 -0.2045047
-0.9203189 0.3321699 -0.2065826
-0.9228638 0.3237358 -0.2086086
-0.9253407 0.3152768 -0.2105826
-0.9277497 0.3067938 -0.2125043
-0.9300906 0.2982874 -0.2143737
-0.9323636 0.2897583 -0.2161905
-0.9345685 0.2812071 -0.2179546
-0.9367055 0.2726347 -0.2196659
-0.9387745 0.2640416 -0.2213243
-0.9407756 0.2554285 -0.2229295
-0.9427087 0.2467962 -0.2244816
-0.9445738 0.2381454 -0.2259803
-0.946371 0.2294766 -0.2274255
-0.9481003 0.2207906 -0.2288171
-0.9497617 0.2120881 -0.2301551
-0.9513552 0.2033696 -0.2314392
-0.9528808 0.194636 -0.2326694
-0.9543385 0.1858879 -0.2338457
-0.9557283 0.177126 -0.2349678
-0.9570502 0.1683508 -0.2360357
-0.9583043 0.1595631 -0.2370494
-0.9594906 0.1507636 -0.2380088
-0.960609 0.1419529 -0.2389137
-0.9616596 0.1331317 -0.2397641
-0.9626423 0.1243006 -0.24056
-0.9635573 0.1154604 -0.2413013
-0.9644044 0.1066116 -0.2419879
-0.9651837 0.09775491 -0.2426197
-0.9658953 0.08889103 -0.2431968
-0.9665391 0.08002059 -0.243719
-0.967115 0.07114426 -0.2441864
-0.9676232 0.06226268 -0.2445989
-0.9680637 0.05337653 -0.2449564
-0.9684364 0.04448644 -0.245259
-0.9687413 0.03559308 -0.2455066
-0.9689784 0.0266971 -0.2456992
-0.9691478 0.01779916 -0.2458368
-0.9692494 0.008899905 -0.2459194
-0.9692833 1.955963e-12 -0.2459469
-0.9692494 -0.008899905 -0.2459194
-0.9691478 -0.01779916 -0.2458368
-0.9689784 -0.0266971 -0.2456992
-0.9687413 -0.03559308 -0.2455066
-0.9684364 -0.04448644 -0.245259
-0.9680637 -0.05337653 -0.2449564
-0.9676232 -0.06226268 -0.2445989
-0.967115 -0.07114426 -0.2441864
-0.9665391 -0.08002059 -0.243719
-0.9658953 -0.08889103 -0.2431968
-0.9651837 -0.09775491 -0.2426197
-0.9644044 -0.1066116 -0.2419879
-0.9635573 -0.1154604 -0.2413013
-0.9626423 -0.1243006 -0.24056
-0.9616596 -0.1331317 -0.2397641
-0.960609 -0.1419529 -0.2389137
-0.9594906 -0.1507636 -0.2380088
-0.9583043 -0.1595631 -0.2370494
-0.9570502 -0.1683508 -0.2360357
-0.9557283 -0.177126 -0.2349678
-0.9543385 -0.1858879 -0.2338457
-0.9528808 -0.194636 -0.2326694
-0.9513552 -0.2033696 -0.2314392
-0.9497617 -0.2120881 -0.2301551
-0.9481003 -0.2207906 -0.2288171
-0.946371 -0.2294766 -0.2274255
-0.9445738 -0.2381454 -0.2259803
-0.9427087 -0.2467962 -0.2244816
-0.9407756 -0.2554285 -0.2229295
-0.9387745 -0.2640416 -0.2213243
-0.9367055 -0.2726347 -0.2196659
-0.9345685 -0.2812071 -0.2179546
-0.9323636 -0.2897583 -0.2161905
-0.9300906 -0.2982874 -0.2143737
-0.9277497 -0.3067938 -0.2125043
-0.9253407 -0.3152768 -0.2105826
-0.9228638 -0.3237358 -0.2086086
-0.9203189 -0.3321699 -0.2065826
-0.9177059 -0.3405785 -0.2045047
-0.9150249 -0.348961 -0.2023751
-0.9122759 -0.3573165 -0.2001939
-0.9094589 -0.3656444 -0.1979614
-0.9065739 -0.3739439 -0.1956777
-0.9036208 -0.3822145 -0.193343
-0.9005997 -0.3904552 -0.1909576
-0.8975107 -0.3986655 -0.1885215
-0.8943536 -0.4068446 -0.1860351
-0.8911286 -0.4149918 -0.1834985