# vtk DataFile Version 2.0
Written badly by Kevin Korner
ASCII
DATASET POLYDATA
POINTS 350 FLOAT
0 0 0
0.00286533 0 0
0.005730493 2.196948e-05 2.171141e-05
0.008595155 6.616089e-05 6.4924e-05
0.01145898 0.0001328184 0.0001294205
0.01432164 0.0002221778 0.0002149766
0.01718279 0.0003344666 0.0003213616
0.0200421 0.0004699035 0.0004483381
0.02289923 0.000628699 0.0005956626
0.02575385 0.0008110548 0.0007630857
0.02860561 0.001017164 0.000950352
0.03145419 0.001247212 0.001157201
0.03429925 0.001501373 0.001383366
0.03714046 0.001779816 0.001628576
0.03997748 0.002082699 0.001892554
0.04280998 0.002410173 0.002175021
0.04563764 0.002762377 0.002475691
0.04846013 0.003139447 0.002794274
0.05127712 0.003541505 0.003130477
0.05408829 0.003968669 0.003484003
0.05689331 0.004421044 0.00385455
0.05969188 0.004898731 0.004241816
0.06248366 0.00540182 0.004645492
0.06526835 0.005930394 0.005065269
0.06804564 0.006484527 0.005500834
0.07081522 0.007064285 0.005951871
0.07357678 0.007669727 0.006418063
0.07633002 0.008300902 0.00689909
0.07907465 0.008957854 0.00739463
0.08181036 0.009640617 0.007904362
0.08453687 0.01034922 0.008427958
0.08725388 0.01108368 0.008965095
0.08996112 0.01184401 0.009515443
0.0926583 0.01263021 0.01007868
0.09534514 0.01344229 0.01065446
0.09802137 0.01428023 0.01124248
0.1006867 0.01514402 0.01184239
0.1033409 0.01603363 0.01245386
0.1059837 0.01694904 0.01307657
0.1086148 0.0178902 0.01371019
0.1112341 0.01885709 0.01435438
0.1138411 0.01984963 0.01500882
0.1164357 0.02086779 0.01567317
0.1190177 0.0219115 0.01634711
0.1215868 0.0229807 0.01703031
0.1241427 0.0240753 0.01772244
0.1266853 0.02519524 0.01842318
0.1292144 0.02634043 0.0191322
0.1317296 0.02751077 0.01984918
0.1342308 0.02870618 0.0205738
0.1367178 0.02992656 0.02130573
0.1391903 0.0311718 0.02204467
0.1416482 0.03244179 0.02279028
0.1440913 0.03373642 0.02354225
0.1465193 0.03505557 0.02430028
0.1489321 0.03639911 0.02506405
0.1513295 0.03776693 0.02583324
0.1537113 0.03915889 0.02660756
0.1560774 0.04057485 0.0273867
0.1584275 0.04201468 0.02817035
0.1607614 0.04347823 0.02895822
0.1630791 0.04496536 0.02975
0.1653803 0.04647591 0.03054539
0.167665 0.04800974 0.03134412
0.1699328 0.04956668 0.03214588
0.1721838 0.05114659 0.03295039
0.1744177 0.05274928 0.03375737
0.1766344 0.05437461 0.03456652
0.1788337 0.0560224 0.03537758
0.1810156 0.05769248 0.03619026
0.1831798 0.05938468 0.03700428
0.1853263 0.06109882 0.03781939
0.1874549 0.06283472 0.03863531
0.1895655 0.0645922 0.03945177
0.1916581 0.06637109 0.04026851
0.1937323 0.06817119 0.04108528
0.1957883 0.06999231 0.04190181
0.1978258 0.07183428 0.04271786
0.1998447 0.07369689 0.04353317
0.201845 0.07557996 0.04434749
0.2038264 0.07748329 0.04516059
0.2057891 0.07940669 0.04597221
0.2077328 0.08134996 0.04678212
0.2096574 0.08331289 0.0475901
0.2115629 0.08529531 0.04839589
0.2134491 0.08729699 0.04919928
0.215316 0.08931774 0.05000004
0.2171636 0.09135735 0.05079795
0.2189917 0.09341563 0.05159278
0.2208002 0.09549236 0.05238432
0.2225891 0.09758734 0.05317235
0.2243583 0.09970036 0.05395667
0.2261077 0.1018312 0.05473707
0.2278373 0.1039797 0.05551334
0.2295471 0.1061456 0.05628529
0.2312368 0.1083287 0.0570527
0.2329065 0.1105288 0.05781539
0.2345562 0.1127457 0.05857317
0.2361857 0.1149791 0.05932584
0.237795 0.117229 0.06007322
0.239384 0.1194949 0.06081512
0.2409528 0.1217768 0.06155137
0.2425012 0.1240744 0.06228178
0.2440292 0.1263875 0.06300618
0.2455368 0.128716 0.0637244
0.2470239 0.1310594 0.06443627
0.2484904 0.1334178 0.06514162
0.2499364 0.1357908 0.06584029
0.2513618 0.1381782 0.06653212
0.2527665 0.1405799 0.06721695
0.2541505 0.1429955 0.06789462
0.2555138 0.145425 0.06856499
0.2568563 0.147868 0.0692279
0.258178 0.1503243 0.0698832
0.2594789 0.1527938 0.07053075
0.260759 0.1552763 0.07117041
0.2620181 0.1577714 0.07180205
0.2632564 0.160279 0.07242551
0.2644737 0.1627989 0.07304068
0.26567 0.1653309 0.07364742
0.2668453 0.1678747 0.07424559
0.2679996 0.1704301 0.07483508
0.2691329 0.1729969 0.07541577
0.270245 0.175575 0.07598752
0.2713361 0.178164 0.07655023
0.2724061 0.1807638 0.07710377
0.2734549 0.1833741 0.07764803
0.2744826 0.1859948 0.07818291
0.2754891 0.1886255 0.07870829
0.2764745 0.1912662 0.07922407
0.2774386 0.1939166 0.07973015
0.2783815 0.1965765 0.08022642
0.2793031 0.1992456 0.08071278
0.2802035 0.2019237 0.08118915
0.2810827 0.2046107 0.08165542
0.2819405 0.2073063 0.08211151
0.2827771 0.2100103 0.08255732
0.2835923 0.2127224 0.08299277
0.2843862 0.2154426 0.08341777
0.2851588 0.2181705 0.08383225
0.28591 0.2209059 0.08423612
0.2866399 0.2236487 0.08462931
0.2873484 0.2263986 0.08501173
0.2880356 0.2291554 0.08538333
0.2887013 0.2319188 0.08574402
0.2893456 0.2346888 0.08609375
0.2899686 0.237465 0.08643243
0.2905701 0.2402473 0.08676002
0.2911502 0.2430353 0.08707645
0.2917089 0.2458291 0.08738166
0.2922462 0.2486282 0.08767559
0.292762 0.2514325 0.08795819
0.2932564 0.2542418 0.0882294
0.2937293 0.2570559 0.08848918
0.2941807 0.2598745 0.08873748
0.2946107 0.2626975 0.08897426
0.2950192 0.2655246 0.08919946
0.2954063 0.2683556 0.08941305
0.2957718 0.2711903 0.08961499
0.2961159 0.2740285 0.08980524
0.2964385 0.27687 0.08998376
0.2967396 0.2797146 0.09015053
0.2970192 0.2825621 0.09030552
0.2972774 0.2854122 0.09044869
0.297514 0.2882647 0.09058003
0.2977291 0.2911194 0.09069949
0.2979227 0.2939762 0.09080708
0.2980948 0.2968347 0.09090276
0.2982454 0.2996949 0.09098651
0.2983745 0.3025564 0.09105833
0.298482 0.3054191 0.0911182
0.2985681 0.3082827 0.09116611
0.2986326 0.3111471 0.09120205
0.2986757 0.314012 0.09122601
0.2986972 0.3168772 0.09123799
0.2986972 0.3197426 0.09123799
0.2986757 0.3226078 0.09122601
0.2986326 0.3254727 0.09120205
0.2985681 0.3283371 0.09116611
0.298482 0.3312007 0.0911182
0.2983745 0.3340634 0.09105833
0.2982454 0.3369249 0.09098651
0.2980948 0.339785 0.09090276
0.2979227 0.3426436 0.09080708
0.2977291 0.3455004 0.09069949
0.297514 0.3483551 0.09058003
0.2972774 0.3512076 0.09044869
0.2970192 0.3540577 0.09030552
0.2967396 0.3569051 0.09015053
0.2964385 0.3597497 0.08998376
0.2961159 0.3625912 0.08980524
0.2957718 0.3654295 0.08961499
0.2954063 0.3682642 0.08941305
0.2950192 0.3710952 0.08919946
0.2946107 0.3739223 0.08897426
0.2941807 0.3767453 0.08873748
0.2937293 0.3795639 0.08848918
0.2932564 0.382378 0.0882294
0.292762 0.3851873 0.08795819
0.2922462 0.3879916 0.08767559
0.2917089 0.3907907 0.08738166
0.2911502 0.3935844 0.08707645
0.2905701 0.3963725 0.08676002
0.2899686 0.3991548 0.08643243
0.2893456 0.401931 0.08609375
0.2887013 0.4047009 0.08574402
0.2880356 0.4074644 0.08538333
0.2873484 0.4102212 0.08501173
0.2866399 0.4129711 0.08462931
0.28591 0.4157139 0.08423612
0.2851588 0.4184493 0.08383225
0.2843862 0.4211772 0.08341777
0.2835923 0.4238973 0.08299277
0.2827771 0.4266095 0.08255732
0.2819405 0.4293135 0.08211151
0.2810827 0.4320091 0.08165542
0.2802035 0.4346961 0.08118915
0.2793031 0.4373742 0.08071278
0.2783815 0.4400433 0.08022642
0.2774386 0.4427032 0.07973015
0.2764745 0.4453535 0.07922407
0.2754891 0.4479942 0.07870829
0.2744826 0.450625 0.07818291
0.2734549 0.4532457 0.07764803
0.2724061 0.455856 0.07710377
0.2713361 0.4584558 0.07655023
0.270245 0.4610448 0.07598752
0.2691329 0.4636228 0.07541577
0.2679996 0.4661897 0.07483508
0.2668453 0.4687451 0.07424559
0.26567 0.4712889 0.07364742
0.2644737 0.4738209 0.07304068
0.2632564 0.4763407 0.07242551
0.2620181 0.4788484 0.07180205
0.260759 0.4813435 0.07117041
0.2594789 0.4838259 0.07053075
0.258178 0.4862954 0.0698832
0.2568563 0.4887518 0.0692279
0.2555138 0.4911948 0.06856499
0.2541505 0.4936242 0.06789462
0.2527665 0.4960399 0.06721695
0.2513618 0.4984415 0.06653212
0.2499364 0.500829 0.06584029
0.2484904 0.503202 0.06514162
0.2470239 0.5055603 0.06443627
0.2455368 0.5079038 0.0637244
0.2440292 0.5102322 0.06300618
0.2425012 0.5125453 0.06228178
0.2409528 0.514843 0.06155137
0.239384 0.5171249 0.06081512
0.237795 0.5193908 0.06007322
0.2361857 0.5216406 0.05932584
0.2345562 0.5238741 0.05857317
0.2329065 0.526091 0.05781539
0.2312368 0.5282911 0.0570527
0.2295471 0.5304742 0.05628529
0.2278373 0.5326401 0.05551334
0.2261077 0.5347886 0.05473707
0.2243583 0.5369194 0.05395667
0.2225891 0.5390324 0.05317235
0.2208002 0.5411274 0.05238432
0.2189917 0.5432041 0.05159278
0.2171636 0.5452624 0.05079795
0.215316 0.547302 0.05000004
0.2134491 0.5493228 0.04919928
0.2115629 0.5513245 0.04839589
0.2096574 0.5533069 0.0475901
0.2077328 0.5552698 0.04678212
0.2057891 0.5572131 0.04597221
0.2038264 0.5591365 0.04516059
0.201845 0.5610398 0.04434749
0.1998447 0.5629229 0.04353317
0.1978258 0.5647855 0.04271786
0.1957883 0.5666275 0.04190181
0.1937323 0.5684486 0.04108528
0.1916581 0.5702487 0.04026851
0.1895655 0.5720276 0.03945177
0.1874549 0.5737851 0.03863531
0.1853263 0.575521 0.03781939
0.1831798 0.5772351 0.03700428
0.1810156 0.5789273 0.03619026
0.1788337 0.5805974 0.03537758
0.1766344 0.5822452 0.03456652
0.1744177 0.5838705 0.03375737
0.1721838 0.5854732 0.03295039
0.1699328 0.5870531 0.03214588
0.167665 0.58861 0.03134412
0.1653803 0.5901439 0.03054539
0.1630791 0.5916544 0.02975
0.1607614 0.5931415 0.02895822
0.1584275 0.5946051 0.02817035
0.1560774 0.5960449 0.0273867
0.1537113 0.5974609 0.02660756
0.1513295 0.5988528 0.02583324
0.1489321 0.6002207 0.02506405
0.1465193 0.6015642 0.02430028
0.1440913 0.6028834 0.02354225
0.1416482 0.604178 0.02279028
0.1391903 0.605448 0.02204467
0.1367178 0.6066932 0.02130573
0.1342308 0.6079136 0.0205738
0.1317296 0.609109 0.01984918
0.1292144 0.6102793 0.0191322
0.1266853 0.6114245 0.01842318
0.1241427 0.6125445 0.01772244
0.1215868 0.6136391 0.01703031
0.1190177 0.6147083 0.01634711
0.1164357 0.615752 0.01567317
0.1138411 0.6167701 0.01500882
0.1112341 0.6177627 0.01435438
0.1086148 0.6187296 0.01371019
0.1059837 0.6196707 0.01307657
0.1033409 0.6205861 0.01245386
0.1006867 0.6214758 0.01184239
0.09802137 0.6223395 0.01124248
0.09534514 0.6231775 0.01065446
0.0926583 0.6239896 0.01007868
0.08996112 0.6247758 0.009515443
0.08725388 0.6255361 0.008965095
0.08453687 0.6262706 0.008427958
0.08181036 0.6269792 0.007904362
0.07907465 0.6276619 0.00739463
0.07633002 0.6283189 0.00689909
0.07357678 0.62895 0.006418063
0.07081522 0.6295555 0.005951871
0.06804564 0.6301352 0.005500834
0.06526835 0.6306894 0.005065269
0.06248366 0.631218 0.004645492
0.05969188 0.631721 0.004241816
0.05689331 0.6321987 0.00385455
0.05408829 0.6326511 0.003484003
0.05127712 0.6330783 0.003130477
0.04846013 0.6334803 0.002794274
0.04563764 0.6338574 0.002475691
0.04280998 0.6342096 0.002175021
0.03997748 0.6345371 0.001892554
0.03714046 0.63484 0.001628576
0.03429925 0.6351184 0.001383366
0.03145419 0.6353726 0.001157201
0.02860561 0.6356026 0.000950352
0.02575385 0.6358087 0.0007630857
0.02289923 0.6359911 0.0005956626
0.0200421 0.6361499 0.0004483381
0.01718279 0.6362853 0.0003213616
0.01432164 0.6363976 0.0002149766
0.01145898 0.636487 0.0001294205
0.008595155 0.6365536 6.4924e-05
0.005730493 0.6365978 2.171141e-05
0.00286533 0.6366198 0
0 0.6366198 0

LINES 349 1047
2 0 1
2 1 2
2 2 3
2 3 4
2 4 5
2 5 6
2 6 7
2 7 8
2 8 9
2 9 10
2 10 11
2 11 12
2 12 13
2 13 14
2 14 15
2 15 16
2 16 17
2 17 18
2 18 19
2 19 20
2 20 21
2 21 22
2 22 23
2 23 24
2 24 25
2 25 26
2 26 27
2 27 28
2 28 29
2 29 30
2 30 31
2 31 32
2 32 33
2 33 34
2 34 35
2 35 36
2 36 37
2 37 38
2 38 39
2 39 40
2 40 41
2 41 42
2 42 43
2 43 44
2 44 45
2 45 46
2 46 47
2 47 48
2 48 49
2 49 50
2 50 51
2 51 52
2 52 53
2 53 54
2 54 55
2 55 56
2 56 57
2 57 58
2 58 59
2 59 60
2 60 61
2 61 62
2 62 63
2 63 64
2 64 65
2 65 66
2 66 67
2 67 68
2 68 69
2 69 70
2 70 71
2 71 72
2 72 73
2 73 74
2 74 75
2 75 76
2 76 77
2 77 78
2 78 79
2 79 80
2 80 81
2 81 82
2 82 83
2 83 84
2 84 85
2 85 86
2 86 87
2 87 88
2 88 89
2 89 90
2 90 91
2 91 92
2 92 93
2 93 94
2 94 95
2 95 96
2 96 97
2 97 98
2 98 99
2 99 100
2 100 101
2 101 102
2 102 103
2 103 104
2 104 105
2 105 106
2 106 107
2 107 108
2 108 109
2 109 110
2 110 111
2 111 112
2 112 113
2 113 114
2 114 115
2 115 116
2 116 117
2 117 118
2 118 119
2 119 120
2 120 121
2 121 122
2 122 123
2 123 124
2 124 125
2 125 126
2 126 127
2 127 128
2 128 129
2 129 130
2 130 131
2 131 132
2 132 133
2 133 134
2 134 135
2 135 136
2 136 137
2 137 138
2 138 139
2 139 140
2 140 141
2 141 142
2 142 143
2 143 144
2 144 145
2 145 146
2 146 147
2 147 148
2 148 149
2 149 150
2 150 151
2 151 152
2 152 153
2 153 154
2 154 155
2 155 156
2 156 157
2 157 158
2 158 159
2 159 160
2 160 161
2 161 162
2 162 163
2 163 164
2 164 165
2 165 166
2 166 167
2 167 168
2 168 169
2 169 170
2 170 171
2 171 172
2 172 173
2 173 174
2 174 175
2 175 176
2 176 177
2 177 178
2 178 179
2 179 180
2 180 181
2 181 182
2 182 183
2 183 184
2 184 185
2 185 186
2 186 187
2 187 188
2 188 189
2 189 190
2 190 191
2 191 192
2 192 193
2 193 194
2 194 195
2 195 196
2 196 197
2 197 198
2 198 199
2 199 200
2 200 201
2 201 202
2 202 203
2 203 204
2 204 205
2 205 206
2 206 207
2 207 208
2 208 209
2 209 210
2 210 211
2 211 212
2 212 213
2 213 214
2 214 215
2 215 216
2 216 217
2 217 218
2 218 219
2 219 220
2 220 221
2 221 222
2 222 223
2 223 224
2 224 225
2 225 226
2 226 227
2 227 228
2 228 229
2 229 230
2 230 231
2 231 232
2 232 233
2 233 234
2 234 235
2 235 236
2 236 237
2 237 238
2 238 239
2 239 240
2 240 241
2 241 242
2 242 243
2 243 244
2 244 245
2 245 246
2 246 247
2 247 248
2 248 249
2 249 250
2 250 251
2 251 252
2 252 253
2 253 254
2 254 255
2 255 256
2 256 257
2 257 258
2 258 259
2 259 260
2 260 261
2 261 262
2 262 263
2 263 264
2 264 265
2 265 266
2 266 267
2 267 268
2 268 269
2 269 270
2 270 271
2 271 272
2 272 273
2 273 274
2 274 275
2 275 276
2 276 277
2 277 278
2 278 279
2 279 280
2 280 281
2 281 282
2 282 283
2 283 284
2 284 285
2 285 286
2 286 287
2 287 288
2 288 289
2 289 290
2 290 291
2 291 292
2 292 293
2 293 294
2 294 295
2 295 296
2 296 297
2 297 298
2 298 299
2 299 300
2 300 301
2 301 302
2 302 303
2 303 304
2 304 305
2 305 306
2 306 307
2 307 308
2 308 309
2 309 310
2 310 311
2 311 312
2 312 313
2 313 314
2 314 315
2 315 316
2 316 317
2 317 318
2 318 319
2 319 320
2 320 321
2 321 322
2 322 323
2 323 324
2 324 325
2 325 326
2 326 327
2 327 328
2 328 329
2 329 330
2 330 331
2 331 332
2 332 333
2 333 334
2 334 335
2 335 336
2 336 337
2 337 338
2 338 339
2 339 340
2 340 341
2 341 342
2 342 343
2 343 344
2 344 345
2 345 346
2 346 347
2 347 348
2 348 349


POINT_DATA 350
SCALARS a FLOAT 1
LOOKUP_TABLE default
0.0005894628
0.0005894628
0.0005894628
0.0005894628
0.0005894628
0.0005894628
0.0005894628
0.0005894628
0.0005894628
0.0005894628
0.0005894628
0.0005894628
0.0005894628
0.0005894628
0.0005894628
0.0005894628
0.0005894628
0.0005894628
0.0005894628
0.0005894628
0.0005894628
0.0005894628
0.0005894628
0.0005894628
0.0005894628
0.0005894628
0.0005894628
0.0005894628
0.0005894628
0.0005894628
0.0005894628
0.0005894628
0.0005894628
0.0005894628
0.0005894628
0.0005894628
0.0005894628
0.0005894628
0.0005894628
0.0005894628
0.0005894628
0.0005894628
0.0005894628
0.0005894628
0.0005894628
0.0005894628
0.0005894628
0.0005894628
0.0005894628
0.0005894628
0.0005894628
0.0005894628
0.0005894628
0.0005894628
0.0005894628
0.0005894628
0.0005894628
0.0005894628
0.0005894628
0.0005894628
0.0005894628
0.0005894628
0.0005894628
0.0005894628
0.0005894628
0.0005894628
0.0005894628
0.0005894628
0.0005894628
0.0005894628
0.0005894628
0.0005894628
0.0005894628
0.0005894628
0.0005894628
0.0005894628
0.0005894628
0.0005894628
0.0005894628
0.0005894628
0.0005894628
0.0005894628
0.0005894628
0.0005894628
0.0005894628
0.0005894628
0.0005894628
0.0005894628
0.0005894628
0.0005894628
0.0005894628
0.0005894628
0.0005894628
0.0005894628
0.0005894628
0.0005894628
0.0005894628
0.0005894628
0.0005894628
0.0005894628
0.0005894628
0.0005894628
0.0005894628
0.0005894628
0.0005894628
0.0005894628
0.0005894628
0.0005894628
0.0005894628
0.0005894628
0.0005894628
0.0005894628
0.0005894628
0.0005894628
0.0005894628
0.0005894628
0.0005894628
0.0005894628
0.0005894628
0.0005894628
0.0005894628
0.0005894628
0.0005894628
0.0005894628
0.0005894628
0.0005894628
0.0005894628
0.0005894628
0.0005894628
0.0005894628
0.0005894628
0.0005894628
0.0005894628
0.0005894628
0.0005894628
0.0005894628
0.0005894628
0.0005894628
0.0005894628
0.0005894628
0.0005894628
0.0005894628
0.0005894628
0.0005894628
0.0005894628
0.0005894628
0.0005894628
0.0005894628
0.0005894628
0.0005894628
0.0005894628
0.0005894628
0.0005894628
0.0005894628
0.0005894628
0.0005894628
0.0005894628
0.0005894628
0.0005894628
0.0005894628
0.0005894628
0.0005894628
0.0005894628
0.0005894628
0.0005894628
0.0005894628
0.0005894628
0.0005894628
0.0005894628
0.0005894628
0.0005894628
0.0005894628
0.0005894628
0.0005894628
0.0005894628
0.0005894628
0.0005894628
0.0005894628
0.0005894628
0.0005894628
0.0005894628
0.0005894628
0.0005894628
0.0005894628
0.0005894628
0.0005894628
0.0005894628
0.0005894628
0.0005894628
0.0005894628
0.0005894628
0.0005894628
0.0005894628
0.0005894628
0.0005894628
0.0005894628
0.0005894628
0.0005894628
0.0005894628
0.0005894628
0.0005894628
0.0005894628
0.0005894628
0.0005894628
0.0005894628
0.0005894628
0.0005894628
0.0005894628
0.0005894628
0.0005894628
0.0005894628
0.0005894628
0.0005894628
0.0005894628
0.0005894628
0.0005894628
0.0005894628
0.0005894628
0.0005894628
0.0005894628
0.0005894628
0.0005894628
0.0005894628
0.0005894628
0.0005894628
0.0005894628
0.0005894628
0.0005894628
0.0005894628
0.0005894628
0.0005894628
0.0005894628
0.0005894628
0.0005894628
0.0005894628
0.0005894628
0.0005894628
0.0005894628
0.0005894628
0.0005894628
0.0005894628
0.0005894628
0.0005894628
0.0005894628
0.0005894628
0.0005894628
0.0005894628
0.0005894628
0.0005894628
0.0005894628
0.0005894628
0.0005894628
0.0005894628
0.0005894628
0.0005894628
0.0005894628
0.0005894628
0.0005894628
0.0005894628
0.0005894628
0.0005894628
0.0005894628
0.0005894628
0.0005894628
0.0005894628
0.0005894628
0.0005894628
0.0005894628
0.0005894628
0.0005894628
0.0005894628
0.0005894628
0.0005894628
0.0005894628
0.0005894628
0.0005894628
0.0005894628
0.0005894628
0.0005894628
0.0005894628
0.0005894628
0.0005894628
0.0005894628
0.0005894628
0.0005894628
0.0005894628
0.0005894628
0.0005894628
0.0005894628
0.0005894628
0.0005894628
0.0005894628
0.0005894628
0.0005894628
0.0005894628
0.0005894628
0.0005894628
0.0005894628
0.0005894628
0.0005894628
0.0005894628
0.0005894628
0.0005894628
0.0005894628
0.0005894628
0.0005894628
0.0005894628
0.0005894628
0.0005894628
0.0005894628
0.0005894628
0.0005894628
0.0005894628
0.0005894628
0.0005894628
0.0005894628
0.0005894628
0.0005894628
0.0005894628
0.0005894628
0.0005894628
0.0005894628
0.0005894628
0.0005894628
0.0005894628
0.0005894628
0.0005894628
0.0005894628
0.0005894628
0.0005894628
0.0005894628
0.0005894628
0.0005894628
0.0005894628
0.0005894628
0.0005894628
0.0005894628
0.0005894628
0.0005894628
0.0005894628
0.0005894628
0.0005894628
0.0005894628
0.0005894628
0.0005894628
0.0005894628
0.0005894628
0.0005894628
0.0005894628
0.0005894628


SCALARS b FLOAT 1
LOOKUP_TABLE default
0.02357851
0.02357851
0.02357851
0.02357851
0.02357851
0.02357851
0.02357851
0.02357851
0.02357851
0.02357851
0.02357851
0.02357851
0.02357851
0.02357851
0.02357851
0.02357851
0.02357851
0.02357851
0.02357851
0.02357851
0.02357851
0.02357851
0.02357851
0.02357851
0.02357851
0.02357851
0.02357851
0.02357851
0.02357851
0.02357851
0.02357851
0.02357851
0.02357851
0.02357851
0.02357851
0.02357851
0.02357851
0.02357851
0.02357851
0.02357851
0.02357851
0.02357851
0.02357851
0.02357851
0.02357851
0.02357851
0.02357851
0.02357851
0.02357851
0.02357851
0.02357851
0.02357851
0.02357851
0.02357851
0.02357851
0.02357851
0.02357851
0.02357851
0.02357851
0.02357851
0.02357851
0.02357851
0.02357851
0.02357851
0.02357851
0.02357851
0.02357851
0.02357851
0.02357851
0.02357851
0.02357851
0.02357851
0.02357851
0.02357851
0.02357851
0.02357851
0.02357851
0.02357851
0.02357851
0.02357851
0.02357851
0.02357851
0.02357851
0.02357851
0.02357851
0.02357851
0.02357851
0.02357851
0.02357851
0.02357851
0.02357851
0.02357851
0.02357851
0.02357851
0.02357851
0.02357851
0.02357851
0.02357851
0.02357851
0.02357851
0.02357851
0.02357851
0.02357851
0.02357851
0.02357851
0.02357851
0.02357851
0.02357851
0.02357851
0.02357851
0.02357851
0.02357851
0.02357851
0.02357851
0.02357851
0.02357851
0.02357851
0.02357851
0.02357851
0.02357851
0.02357851
0.02357851
0.02357851
0.02357851
0.02357851
0.02357851
0.02357851
0.02357851
0.02357851
0.02357851
0.02357851
0.02357851
0.02357851
0.02357851
0.02357851
0.02357851
0.02357851
0.02357851
0.02357851
0.02357851
0.02357851
0.02357851
0.02357851
0.02357851
0.02357851
0.02357851
0.02357851
0.02357851
0.02357851
0.02357851
0.02357851
0.02357851
0.02357851
0.02357851
0.02357851
0.02357851
0.02357851
0.02357851
0.02357851
0.02357851
0.02357851
0.02357851
0.02357851
0.02357851
0.02357851
0.02357851
0.02357851
0.02357851
0.02357851
0.02357851
0.02357851
0.02357851
0.02357851
0.02357851
0.02357851
0.02357851
0.02357851
0.02357851
0.02357851
0.02357851
0.02357851
0.02357851
0.02357851
0.02357851
0.02357851
0.02357851
0.02357851
0.02357851
0.02357851
0.02357851
0.02357851
0.02357851
0.02357851
0.02357851
0.02357851
0.02357851
0.02357851
0.02357851
0.02357851
0.02357851
0.02357851
0.02357851
0.02357851
0.02357851
0.02357851
0.02357851
0.02357851
0.02357851
0.02357851
0.02357851
0.02357851
0.02357851
0.02357851
0.02357851
0.02357851
0.02357851
0.02357851
0.02357851
0.02357851
0.02357851
0.02357851
0.02357851
0.02357851
0.02357851
0.02357851
0.02357851
0.02357851
0.02357851
0.02357851
0.02357851
0.02357851
0.02357851
0.02357851
0.02357851
0.02357851
0.02357851
0.02357851
0.02357851
0.02357851
0.02357851
0.02357851
0.02357851
0.02357851
0.02357851
0.02357851
0.02357851
0.02357851
0.02357851
0.02357851
0.02357851
0.02357851
0.02357851
0.02357851
0.02357851
0.02357851
0.02357851
0.02357851
0.02357851
0.02357851
0.02357851
0.02357851
0.02357851
0.02357851
0.02357851
0.02357851
0.02357851
0.02357851
0.02357851
0.02357851
0.02357851
0.02357851
0.02357851
0.02357851
0.02357851
0.02357851
0.02357851
0.02357851
0.02357851
0.02357851
0.02357851
0.02357851
0.02357851
0.02357851
0.02357851
0.02357851
0.02357851
0.02357851
0.02357851
0.02357851
0.02357851
0.02357851
0.02357851
0.02357851
0.02357851
0.02357851
0.02357851
0.02357851
0.02357851
0.02357851
0.02357851
0.02357851
0.02357851
0.02357851
0.02357851
0.02357851
0.02357851
0.02357851
0.02357851
0.02357851
0.02357851
0.02357851
0.02357851
0.02357851
0.02357851
0.02357851
0.02357851
0.02357851
0.02357851
0.02357851
0.02357851
0.02357851
0.02357851
0.02357851
0.02357851
0.02357851
0.02357851
0.02357851
0.02357851
0.02357851
0.02357851
0.02357851
0.02357851
0.02357851
0.02357851
0.02357851
0.02357851
0.02357851
0.02357851
0.02357851
0.02357851
0.02357851
0.02357851
0.02357851
0.02357851
0.02357851
0.02357851
0.02357851
0.02357851
0.02357851
0.02357851


VECTORS d1 FLOAT
0 0.7071068 0.7071068
-0.01077965 0.7145186 0.6995333
-0.02156987 0.7217355 0.6918328
-0.03236688 0.7287563 0.6840078
-0.04316695 0.73558 0.6760612
-0.0539664 0.7422057 0.6679957
-0.06476161 0.7486328 0.6598143
-0.07554899 0.7548604 0.6515198
-0.08632502 0.7608882 0.6431152
-0.09708623 0.7667155 0.6346035
-0.1078292 0.772342 0.6259877
-0.1185507 0.7777676 0.6172709
-0.1292472 0.7829919 0.6084561
-0.1399157 0.788015 0.5995464
-0.150553 0.7928369 0.5905451
-0.161156 0.7974576 0.5814552
-0.1717216 0.8018774 0.5722799
-0.1822469 0.8060967 0.5630224
-0.1927291 0.8101157 0.5536859
-0.2031653 0.813935 0.5442735
-0.2135527 0.8175551 0.5347886
-0.2238887 0.8209767 0.5252343
-0.2341708 0.8242005 0.5156139
-0.2443963 0.8272272 0.5059304
-0.2545629 0.8300578 0.4961873
-0.2646681 0.8326932 0.4863875
-0.2747097 0.8351344 0.4765345
-0.2846855 0.8373825 0.4666312
-0.2945932 0.8394387 0.456681
-0.3044308 0.8413042 0.4466869
-0.3141964 0.8429802 0.436652
-0.323888 0.8444681 0.4265796
-0.3335038 0.8457693 0.4164727
-0.3430419 0.8468853 0.4063344
-0.3525007 0.8478175 0.3961676
-0.3618786 0.8485675 0.3859756
-0.371174 0.8491369 0.3757611
-0.3803854 0.8495274 0.3655272
-0.3895115 0.8497406 0.3552769
-0.3985508 0.8497784 0.345013
-0.4075022 0.8496423 0.3347384
-0.4163645 0.8493344 0.324456
-0.4251364 0.8488564 0.3141685
-0.4338171 0.8482102 0.3038786
-0.4424054 0.8473977 0.2935892
-0.4509006 0.8464208 0.2833029
-0.4593016 0.8452815 0.2730224
-0.4676078 0.8439818 0.2627502
-0.4758184 0.8425237 0.252489
-0.4839327 0.8409092 0.2422412
-0.4919502 0.8391404 0.2320094
-0.4998704 0.8372193 0.2217959
-0.5076926 0.8351481 0.2116032
-0.5154166 0.8329287 0.2014336
-0.523042 0.8305633 0.1912895
-0.5305684 0.828054 0.1811731
-0.5379957 0.8254029 0.1710866
-0.5453235 0.8226122 0.1610323
-0.5525518 0.819684 0.1510122
-0.5596805 0.8166203 0.1410284
-0.5667095 0.8134233 0.131083
-0.5736389 0.8100953 0.121178
-0.5804686 0.8066381 0.1113154
-0.5871988 0.8030541 0.101497
-0.5938296 0.7993453 0.0917248
-0.6003612 0.7955139 0.08200053
-0.6067938 0.7915619 0.07232601
-0.6131278 0.7874914 0.06270297
-0.6193633 0.7833045 0.05313311
-0.6255007 0.7790034 0.0436181
-0.6315405 0.7745901 0.03415953
-0.637483 0.7700665 0.02475898
-0.6433286 0.7654349 0.01541799
-0.6490779 0.7606972 0.006138032
-0.6547314 0.7558553 -0.003079438
-0.6602896 0.7509114 -0.01223301
-0.6657531 0.7458675 -0.02132133
-0.6711224 0.7407253 -0.03034305
-0.6763983 0.735487 -0.03929689
-0.6815813 0.7301544 -0.0481816
-0.6866721 0.7247295 -0.05699596
-0.6916715 0.7192141 -0.06573879
-0.6965801 0.7136101 -0.07440894
-0.7013988 0.7079194 -0.08300532
-0.7061281 0.7021438 -0.09152685
-0.7107691 0.696285 -0.09997249
-0.7153223 0.690345 -0.1083412
-0.7197887 0.6843254 -0.1166321
-0.724169 0.678228 -0.1248442
-0.7284642 0.6720544 -0.1329766
-0.732675 0.6658065 -0.1410284
-0.7368024 0.6594859 -0.1489987
-0.7408472 0.6530941 -0.1568869
-0.7448103 0.646633 -0.1646919
-0.7486926 0.6401039 -0.1724132
-0.7524951 0.6335086 -0.18005
-0.7562185 0.6268486 -0.1876016
-0.759864 0.6201254 -0.1950672
-0.7634323 0.6133405 -0.2024463
-0.7669245 0.6064954 -0.2097383
-0.7703415 0.5995915 -0.2169424
-0.7736841 0.5926304 -0.2240582
-0.7769535 0.5856133 -0.2310851
-0.7801504 0.5785418 -0.2380225
-0.7832759 0.5714171 -0.24487
-0.786331 0.5642406 -0.2516271
-0.7893165 0.5570136 -0.2582932
-0.7922334 0.5497374 -0.264868
-0.7950826 0.5424133 -0.271351
-0.7978652 0.5350426 -0.2777418
-0.8005821 0.5276263 -0.2840401
-0.8032342 0.5201659 -0.2902454
-0.8058224 0.5126623 -0.2963573
-0.8083476 0.5051169 -0.3023757
-0.8108109 0.4975307 -0.3083
-0.8132131 0.4899048 -0.3141301
-0.8155552 0.4822403 -0.3198656
-0.817838 0.4745384 -0.3255063
-0.8200625 0.4668 -0.3310518
-0.8222295 0.4590262 -0.336502
-0.82434 0.451218 -0.3418565
-0.8263948 0.4433764 -0.3471153
-0.8283948 0.4355024 -0.352278
-0.8303408 0.4275968 -0.3573445
-0.8322338 0.4196607 -0.3623145
-0.8340745 0.411695 -0.3671879
-0.8358638 0.4037005 -0.3719645
-0.8376025 0.3956781 -0.3766442
-0.8392914 0.3876287 -0.3812268
-0.8409313 0.3795531 -0.3857122
-0.842523 0.3714522 -0.3901002
-0.8440673 0.3633268 -0.3943907
-0.8455649 0.3551775 -0.3985836
-0.8470166 0.3470053 -0.4026788
-0.848423 0.3388109 -0.4066762
-0.849785 0.330595 -0.4105757
-0.8511032 0.3223584 -0.4143771
-0.8523783 0.3141017 -0.4180805
-0.853611 0.3058258 -0.4216857
-0.854802 0.2975311 -0.4251927
-0.8559518 0.2892185 -0.4286013
-0.8570612 0.2808886 -0.4319116
-0.8581307 0.272542 -0.4351235
-0.859161 0.2641794 -0.438237
-0.8601526 0.2558014 -0.4412519
-0.861106 0.2474086 -0.4441682
-0.8620219 0.2390016 -0.4469859
-0.8629008 0.230581 -0.449705
-0.8637432 0.2221473 -0.4523254
-0.8645495 0.2137013 -0.4548472
-0.8653203 0.2052433 -0.4572701
-0.866056 0.1967739 -0.4595944
-0.8667571 0.1882938 -0.4618198
-0.867424 0.1798033 -0.4639464
-0.8680572 0.1713031 -0.4659743
-0.8686569 0.1627937 -0.4679032
-0.8692236 0.1542756 -0.4697334
-0.8697576 0.1457492 -0.4714646
-0.8702593 0.137215 -0.473097
-0.870729 0.1286737 -0.4746305
-0.871167 0.1201255 -0.476065
-0.8715735 0.1115711 -0.4774007
-0.8719489 0.1030108 -0.4786375
-0.8722934 0.09444525 -0.4797753
-0.8726071 0.08587476 -0.4808142
-0.8728904 0.07729984 -0.4817542
-0.8731433 0.06872093 -0.4825953
-0.8733661 0.0601385 -0.4833374
-0.8735589 0.05155299 -0.4839805
-0.8737218 0.04296484 -0.4845248
-0.8738549 0.0343745 -0.48497
-0.8739584 0.02578241 -0.4853164
-0.8740323 0.017189 -0.4855637
-0.8740766 0.008594718 -0.4857122
-0.8740913 -4.138356e-14 -0.4857616
-0.8740766 -0.008594718 -0.4857122
-0.8740323 -0.017189 -0.4855637
-0.8739584 -0.02578241 -0.4853164
-0.8738549 -0.0343745 -0.48497
-0.8737218 -0.04296484 -0.4845248
-0.8735589 -0.05155299 -0.4839805
-0.8733661 -0.0601385 -0.4833374
-0.8731433 -0.06872093 -0.4825953
-0.8728904 -0.07729984 -0.4817542
-0.8726071 -0.08587476 -0.4808142
-0.8722934 -0.09444525 -0.4797753
-0.8719489 -0.1030108 -0.4786375
-0.8715735 -0.1115711 -0.4774007
-0.871167 -0.1201255 -0.476065
-0.870729 -0.1286737 -0.4746305
-0.8702593 -0.137215 -0.473097
-0.8697576 -0.1457492 -0.4714646
-0.8692236 -0.1542756 -0.4697334
-0.8686569 -0.1627937 -0.4679032
-0.8680572 -0.1713031 -0.4659743
-0.867424 -0.1798033 -0.4639464
-0.8667571 -0.1882938 -0.4618198
-0.866056 -0.1967739 -0.4595944
-0.8653203 -0.2052433 -0.4572701
-0.8645495 -0.2137013 -0.4548472
-0.8637432 -0.2221473 -0.4523254
-0.8629008 -0.230581 -0.449705
-0.8620219 -0.2390016 -0.4469859
-0.861106 -0.2474086 -0.4441682
-0.8601526 -0.2558014 -0.4412519
-0.859161 -0.2641794 -0.438237
-0.8581307 -0.272542 -0.4351235
-0.8570612 -0.2808886 -0.4319116
-0.8559518 -0.2892185 -0.4286013
-0.854802 -0.2975311 -0.4251927
-0.853611 -0.3058258 -0.4216857
-0.8523783 -0.3141017 -0.4180805
-0.8511032 -0.3223584 -0.4143771
-0.849785 -0.330595 -0.4105757
-0.848423 -0.3388109 -0.4066762
-0.8470166 -0.3470053 -0.4026788
-0.8455649 -0.3551775 -0.3985836
-0.8440673 -0.3633268 -0.3943907
-0.842523 -0.3714522 -0.3901002
-0.8409313 -0.3795531 -0.3857122
-0.8392914 -0.3876287 -0.3812268
-0.8376025 -0.3956781 -0.3766442
-0.8358638 -0.4037005 -0.3719645
-0.8340745 -0.411695 -0.3671879
-0.8322338 -0.4196607 -0.3623145