# vtk DataFile Version 2.0
Written badly by Kevin Korner
ASCII
DATASET POLYDATA
POINTS 350 FLOAT
0 0 0
0.00286533 0 0
0.005729883 1.504958e-05 -6.497419e-05
0.008592316 4.255157e-05 -0.0001907995
0.01145158 8.013533e-05 -0.0003732541
0.01430692 0.000125656 -0.0006079982
0.01715782 0.0001771944 -0.0008905395
0.02000404 0.0002330579 -0.001216176
0.02284558 0.0002917856 -0.001579902
0.02568272 0.0003521584 -0.001976237
0.02851605 0.0004132223 -0.002398908
0.03134654 0.0004743432 -0.002840136
0.03417586 0.0005353547 -0.003288854
0.03700628 0.0005967927 -0.003730533
0.03983931 0.0006595735 -0.004154917
0.04267577 0.0007247604 -0.004555336
0.04551608 0.0007935345 -0.00492685
0.04836037 0.0008671785 -0.005265522
0.05120856 0.0009470621 -0.005568083
0.05406039 0.001034629 -0.005831761
0.05691544 0.001131383 -0.006054173
0.05977314 0.001238882 -0.006233268
0.06263283 0.001358719 -0.006367278
0.0654937 0.00149252 -0.00645469
0.06835485 0.001641928 -0.006494226
0.07121532 0.001808598 -0.006484822
0.07407402 0.001994185 -0.006425617
0.07692982 0.002200339 -0.006315944
0.07978151 0.002428692 -0.006155319
0.08262785 0.002680853 -0.005943431
0.08546752 0.002958399 -0.00568014
0.0882992 0.003262872 -0.005365463
0.09112151 0.003595764 -0.004999573
0.09393306 0.003958522 -0.00458279
0.09673245 0.004352531 -0.004115573
0.09951826 0.004779118 -0.003598514
0.1022891 0.00523954 -0.003032332
0.1050436 0.005734988 -0.002417862
0.1077803 0.006266574 -0.001756055
0.1104978 0.006835336 -0.001047961
0.113195 0.007442231 -0.0002947283
0.1158703 0.008088135 0.0005024063
0.1185226 0.008773841 0.001342126
0.1211507 0.009500057 0.002223042
0.1237533 0.01026741 0.003143698
0.1263294 0.01107644 0.004102584
0.1288778 0.0119276 0.005098139
0.1313976 0.01282126 0.00612876
0.1338878 0.01375773 0.007192808
0.1363474 0.01473721 0.00828862
0.1387758 0.01575983 0.00941451
0.141172 0.01682567 0.01056878
0.1435353 0.0179347 0.01174972
0.1458652 0.01908685 0.01295562
0.1481611 0.02028196 0.01418479
0.1504224 0.02151984 0.01543552
0.1526487 0.02280019 0.01670614
0.1548395 0.02412271 0.01799498
0.1569947 0.025487 0.01930042
0.1591138 0.02689264 0.02062083
0.1611968 0.02833914 0.02195466
0.1632434 0.029826 0.02330034
0.1652535 0.03135266 0.02465639
0.1672271 0.03291852 0.02602132
0.1691642 0.03452297 0.02739372
0.1710649 0.03616534 0.0287722
0.1729292 0.03784497 0.03015543
0.1747573 0.03956116 0.03154213
0.1765493 0.04131319 0.03293104
0.1783055 0.04310032 0.03432097
0.1800262 0.04492182 0.03571079
0.1817116 0.04677692 0.03709938
0.183362 0.04866487 0.0384857
0.1849778 0.05058489 0.03986876
0.1865593 0.05253621 0.0412476
0.188107 0.05451805 0.0426213
0.1896213 0.05652965 0.04398902
0.1911025 0.05857024 0.04534995
0.1925511 0.06063903 0.0467033
0.1939677 0.06273528 0.04804836
0.1953527 0.06485823 0.04938445
0.1967065 0.06700714 0.05071092
0.1980296 0.06918125 0.05202718
0.1993227 0.07137986 0.05333267
0.2005861 0.07360223 0.05462685
0.2018204 0.07584767 0.05590925
0.2030262 0.07811548 0.05717942
0.2042039 0.08040499 0.05843692
0.205354 0.08271552 0.05968139
0.2064772 0.08504644 0.06091245
0.2075738 0.08739709 0.06212979
0.2086445 0.08976685 0.06333311
0.2096897 0.09215513 0.06452213
0.21071 0.09456131 0.06569661
0.2117058 0.09698483 0.06685633
0.2126777 0.09942513 0.06800109
0.2136262 0.1018816 0.06913071
0.2145518 0.1043538 0.07024503
0.2154548 0.1068412 0.07134392
0.2163359 0.1093432 0.07242725
0.2171955 0.1118595 0.07349493
0.218034 0.1143894 0.07454686
0.218852 0.1169325 0.07558298
0.2196498 0.1194884 0.07660323
0.2204278 0.1220567 0.07760755
0.2211866 0.1246369 0.07859593
0.2219265 0.1272287 0.07956834
0.2226479 0.1298315 0.08052476
0.2233513 0.1324451 0.0814652
0.224037 0.1350691 0.08238967
0.2247054 0.1377031 0.08329818
0.2253569 0.1403468 0.08419076
0.2259918 0.1429998 0.08506743
0.2266105 0.1456618 0.08592824
0.2272134 0.1483325 0.08677323
0.2278008 0.1510116 0.08760244
0.2283729 0.1536988 0.08841593
0.2289302 0.1563938 0.08921376
0.2294729 0.1590963 0.08999599
0.2300014 0.1618061 0.09076269
0.2305158 0.1645229 0.09151391
0.2310166 0.1672465 0.09224973
0.231504 0.1699766 0.09297023
0.2319782 0.172713 0.09367548
0.2324395 0.1754555 0.09436555
0.2328882 0.1782038 0.09504051
0.2333244 0.1809577 0.09570046
0.2337485 0.1837171 0.09634546
0.2341607 0.1864818 0.0969756
0.2345612 0.1892514 0.09759095
0.2349501 0.192026 0.0981916
0.2353278 0.1948052 0.09877762
0.2356943 0.1975889 0.09934909
0.23605 0.200377 0.09990609
0.2363949 0.2031693 0.1004487
0.2367293 0.2059655 0.100977
0.2370533 0.2087657 0.101491
0.2373671 0.2115696 0.1019909
0.2376709 0.214377 0.1024767
0.2379647 0.2171879 0.1029485
0.2382489 0.2200022 0.1034063
0.2385234 0.2228195 0.1038503
0.2387885 0.22564 0.1042804
0.2390443 0.2284633 0.1046968
0.2392908 0.2312895 0.1050995
0.2395283 0.2341183 0.1054886
0.2397568 0.2369497 0.1058641
0.2399765 0.2397836 0.1062262
0.2401875 0.2426198 0.1065748
0.2403898 0.2454583 0.10691
0.2405835 0.2482988 0.1072318
0.2407688 0.2511415 0.1075404
0.2409458 0.253986 0.1078358
0.2411144 0.2568324 0.108118
0.2412749 0.2596806 0.108387
0.2414273 0.2625304 0.108643
0.2415716 0.2653818 0.1088859
0.2417079 0.2682346 0.1091157
0.2418363 0.2710888 0.1093326
0.2419569 0.2739444 0.1095366
0.2420696 0.2768011 0.1097277
0.2421747 0.2796589 0.1099058
0.242272 0.2825178 0.1100712
0.2423616 0.2853777 0.1102237
0.2424437 0.2882384 0.1103634
0.2425181 0.2911 0.1104903
0.242585 0.2939623 0.1106045
0.2426444 0.2968252 0.110706
0.2426964 0.2996887 0.1107947
0.2427408 0.3025526 0.1108707
0.2427778 0.305417 0.1109341
0.2428074 0.3082818 0.1109847
0.2428296 0.3111467 0.1110227
0.2428444 0.3140119 0.111048
0.2428518 0.3168772 0.1110607
0.2428518 0.3197426 0.1110607
0.2428444 0.3226078 0.111048
0.2428296 0.325473 0.1110227
0.2428074 0.328338 0.1109847
0.2427778 0.3312027 0.1109341
0.2427408 0.3340671 0.1108707
0.2426964 0.3369311 0.1107947
0.2426444 0.3397946 0.110706
0.242585 0.3426575 0.1106045
0.2425181 0.3455198 0.1104903
0.2424437 0.3483813 0.1103634
0.2423616 0.3512421 0.1102237
0.242272 0.3541019 0.1100712
0.2421747 0.3569608 0.1099058
0.2420696 0.3598187 0.1097277
0.2419569 0.3626754 0.1095366
0.2418363 0.3655309 0.1093326
0.2417079 0.3683852 0.1091157
0.2415716 0.371238 0.1088859
0.2414273 0.3740894 0.108643
0.2412749 0.3769392 0.108387
0.2411144 0.3797873 0.108118
0.2409458 0.3826337 0.1078358
0.2407688 0.3854783 0.1075404
0.2405835 0.3883209 0.1072318
0.2403898 0.3911615 0.10691
0.2401875 0.394 0.1065748
0.2399765 0.3968362 0.1062262
0.2397568 0.3996701 0.1058641
0.2395283 0.4025015 0.1054886
0.2392908 0.4053303 0.1050995
0.2390443 0.4081565 0.1046968
0.2387885 0.4109798 0.1042804
0.2385234 0.4138002 0.1038503
0.2382489 0.4166176 0.1034063
0.2379647 0.4194318 0.1029485
0.2376709 0.4222427 0.1024767
0.2373671 0.4250502 0.1019909
0.2370533 0.4278541 0.101491
0.2367293 0.4306542 0.100977
0.2363949 0.4334505 0.1004487
0.23605 0.4362428 0.09990609
0.2356943 0.4390309 0.09934909
0.2353278 0.4418146 0.09877762
0.2349501 0.4445938 0.0981916
0.2345612 0.4473683 0.09759095
0.2341607 0.450138 0.0969756
0.2337485 0.4529026 0.09634546
0.2333244 0.455662 0.09570046
0.2328882 0.458416 0.09504051
0.2324395 0.4611643 0.09436555
0.2319782 0.4639068 0.09367548
0.231504 0.4666432 0.09297023
0.2310166 0.4693733 0.09224973
0.2305158 0.4720968 0.09151391
0.2300014 0.4748137 0.09076269
0.2294729 0.4775235 0.08999599
0.2289302 0.480226 0.08921376
0.2283729 0.482921 0.08841593
0.2278008 0.4856082 0.08760244
0.2272134 0.4882873 0.08677323
0.2266105 0.490958 0.08592824
0.2259918 0.49362 0.08506743
0.2253569 0.496273 0.08419076
0.2247054 0.4989167 0.08329818
0.224037 0.5015507 0.08238967
0.2233513 0.5041746 0.0814652
0.2226479 0.5067883 0.08052476
0.2219265 0.5093911 0.07956834
0.2211866 0.5119829 0.07859593
0.2204278 0.5145631 0.07760755
0.2196498 0.5171313 0.07660323
0.218852 0.5196873 0.07558298
0.218034 0.5222304 0.07454686
0.2171955 0.5247603 0.07349493
0.2163359 0.5272765 0.07242725
0.2154548 0.5297786 0.07134392
0.2145518 0.5322659 0.07024503
0.2136262 0.5347381 0.06913071
0.2126777 0.5371946 0.06800109
0.2117058 0.5396349 0.06685633
0.21071 0.5420585 0.06569661
0.2096897 0.5444646 0.06452213
0.2086445 0.5468529 0.06333311
0.2075738 0.5492227 0.06212979
0.2064772 0.5515733 0.06091245
0.205354 0.5539042 0.05968139
0.2042039 0.5562148 0.05843692
0.2030262 0.5585043 0.05717942
0.2018204 0.5607721 0.05590925
0.2005861 0.5630175 0.05462685
0.1993227 0.5652399 0.05333267
0.1980296 0.5674385 0.05202718
0.1967065 0.5696126 0.05071092
0.1953527 0.5717615 0.04938445
0.1939677 0.5738845 0.04804836
0.1925511 0.5759807 0.0467033
0.1911025 0.5780495 0.04534995
0.1896213 0.5800901 0.04398902
0.188107 0.5821017 0.0426213
0.1865593 0.5840836 0.0412476
0.1849778 0.5860349 0.03986876
0.183362 0.5879549 0.0384857
0.1817116 0.5898428 0.03709938
0.1800262 0.591698 0.03571079
0.1783055 0.5935194 0.03432097
0.1765493 0.5953066 0.03293104
0.1747573 0.5970586 0.03154213
0.1729292 0.5987748 0.03015543
0.1710649 0.6004544 0.0287722
0.1691642 0.6020968 0.02739372
0.1672271 0.6037012 0.02602132
0.1652535 0.6052671 0.02465639
0.1632434 0.6067938 0.02330034
0.1611968 0.6082806 0.02195466
0.1591138 0.6097271 0.02062083
0.1569947 0.6111328 0.01930042
0.1548395 0.6124971 0.01799498
0.1526487 0.6138196 0.01670614
0.1504224 0.6150999 0.01543552
0.1481611 0.6163378 0.01418479
0.1458652 0.6175329 0.01295562
0.1435353 0.6186851 0.01174972
0.141172 0.6197941 0.01056878
0.1387758 0.6208599 0.00941451
0.1363474 0.6218826 0.00828862
0.1338878 0.622862 0.007192809
0.1313976 0.6237985 0.00612876
0.1288778 0.6246922 0.005098139
0.1263294 0.6255433 0.004102584
0.1237533 0.6263524 0.003143698
0.1211507 0.6271197 0.002223042
0.1185226 0.6278459 0.001342126
0.1158703 0.6285316 0.0005024063
0.113195 0.6291775 -0.0002947282
0.1104978 0.6297844 -0.001047961
0.1077803 0.6303532 -0.001756055
0.1050436 0.6308848 -0.002417862
0.1022891 0.6313802 -0.003032332
0.09951826 0.6318407 -0.003598514
0.09673245 0.6322672 -0.004115573
0.09393306 0.6326613 -0.00458279
0.09112151 0.633024 -0.004999573
0.0882992 0.6333569 -0.005365463
0.08546752 0.6336614 -0.00568014
0.08262785 0.6339389 -0.005943431
0.07978151 0.6341911 -0.006155319
0.07692982 0.6344194 -0.006315944
0.07407402 0.6346256 -0.006425617
0.07121532 0.6348112 -0.006484822
0.06835485 0.6349778 -0.006494226
0.0654937 0.6351273 -0.00645469
0.06263283 0.6352611 -0.006367278
0.05977314 0.6353809 -0.006233268
0.05691544 0.6354884 -0.006054173
0.05406039 0.6355851 -0.005831761
0.05120856 0.6356727 -0.005568083
0.04836037 0.6357526 -0.005265522
0.04551608 0.6358262 -0.00492685
0.04267577 0.635895 -0.004555336
0.03983931 0.6359602 -0.004154917
0.03700628 0.636023 -0.003730533
0.03417586 0.6360844 -0.003288854
0.03134654 0.6361454 -0.002840136
0.02851605 0.6362066 -0.002398908
0.02568272 0.6362676 -0.001976237
0.02284558 0.636328 -0.001579902
0.02000404 0.6363867 -0.001216176
0.01715782 0.6364426 -0.0008905395
0.01430692 0.6364941 -0.0006079982
0.01145158 0.6365396 -0.0003732541
0.008592316 0.6365772 -0.0001907995
0.005729883 0.6366047 -6.497419e-05
0.00286533 0.6366198 0
0 0.6366198 0

LINES 349 1047
2 0 1
2 1 2
2 2 3
2 3 4
2 4 5
2 5 6
2 6 7
2 7 8
2 8 9
2 9 10
2 10 11
2 11 12
2 12 13
2 13 14
2 14 15
2 15 16
2 16 17
2 17 18
2 18 19
2 19 20
2 20 21
2 21 22
2 22 23
2 23 24
2 24 25
2 25 26
2 26 27
2 27 28
2 28 29
2 29 30
2 30 31
2 31 32
2 32 33
2 33 34
2 34 35
2 35 36
2 36 37
2 37 38
2 38 39
2 39 40
2 40 41
2 41 42
2 42 43
2 43 44
2 44 45
2 45 46
2 46 47
2 47 48
2 48 49
2 49 50
2 50 51
2 51 52
2 52 53
2 53 54
2 54 55
2 55 56
2 56 57
2 57 58
2 58 59
2 59 60
2 60 61
2 61 62
2 62 63
2 63 64
2 64 65
2 65 66
2 66 67
2 67 68
2 68 69
2 69 70
2 70 71
2 71 72
2 72 73
2 73 74
2 74 75
2 75 76
2 76 77
2 77 78
2 78 79
2 79 80
2 80 81
2 81 82
2 82 83
2 83 84
2 84 85
2 85 86
2 86 87
2 87 88
2 88 89
2 89 90
2 90 91
2 91 92
2 92 93
2 93 94
2 94 95
2 95 96
2 96 97
2 97 98
2 98 99
2 99 100
2 100 101
2 101 102
2 102 103
2 103 104
2 104 105
2 105 106
2 106 107
2 107 108
2 108 109
2 109 110
2 110 111
2 111 112
2 112 113
2 113 114
2 114 115
2 115 116
2 116 117
2 117 118
2 118 119
2 119 120
2 120 121
2 121 122
2 122 123
2 123 124
2 124 125
2 125 126
2 126 127
2 127 128
2 128 129
2 129 130
2 130 131
2 131 132
2 132 133
2 133 134
2 134 135
2 135 136
2 136 137
2 137 138
2 138 139
2 139 140
2 140 141
2 141 142
2 142 143
2 143 144
2 144 145
2 145 146
2 146 147
2 147 148
2 148 149
2 149 150
2 150 151
2 151 152
2 152 153
2 153 154
2 154 155
2 155 156
2 156 157
2 157 158
2 158 159
2 159 160
2 160 161
2 161 162
2 162 163
2 163 164
2 164 165
2 165 166
2 166 167
2 167 168
2 168 169
2 169 170
2 170 171
2 171 172
2 172 173
2 173 174
2 174 175
2 175 176
2 176 177
2 177 178
2 178 179
2 179 180
2 180 181
2 181 182
2 182 183
2 183 184
2 184 185
2 185 186
2 186 187
2 187 188
2 188 189
2 189 190
2 190 191
2 191 192
2 192 193
2 193 194
2 194 195
2 195 196
2 196 197
2 197 198
2 198 199
2 199 200
2 200 201
2 201 202
2 202 203
2 203 204
2 204 205
2 205 206
2 206 207
2 207 208
2 208 209
2 209 210
2 210 211
2 211 212
2 212 213
2 213 214
2 214 215
2 215 216
2 216 217
2 217 218
2 218 219
2 219 220
2 220 221
2 221 222
2 222 223
2 223 224
2 224 225
2 225 226
2 226 227
2 227 228
2 228 229
2 229 230
2 230 231
2 231 232
2 232 233
2 233 234
2 234 235
2 235 236
2 236 237
2 237 238
2 238 239
2 239 240
2 240 241
2 241 242
2 242 243
2 243 244
2 244 245
2 245 246
2 246 247
2 247 248
2 248 249
2 249 250
2 250 251
2 251 252
2 252 253
2 253 254
2 254 255
2 255 256
2 256 257
2 257 258
2 258 259
2 259 260
2 260 261
2 261 262
2 262 263
2 263 264
2 264 265
2 265 266
2 266 267
2 267 268
2 268 269
2 269 270
2 270 271
2 271 272
2 272 273
2 273 274
2 274 275
2 275 276
2 276 277
2 277 278
2 278 279
2 279 280
2 280 281
2 281 282
2 282 283
2 283 284
2 284 285
2 285 286
2 286 287
2 287 288
2 288 289
2 289 290
2 290 291
2 291 292
2 292 293
2 293 294
2 294 295
2 295 296
2 296 297
2 297 298
2 298 299
2 299 300
2 300 301
2 301 302
2 302 303
2 303 304
2 304 305
2 305 306
2 306 307
2 307 308
2 308 309
2 309 310
2 310 311
2 311 312
2 312 313
2 313 314
2 314 315
2 315 316
2 316 317
2 317 318
2 318 319
2 319 320
2 320 321
2 321 322
2 322 323
2 323 324
2 324 325
2 325 326
2 326 327
2 327 328
2 328 329
2 329 330
2 330 331
2 331 332
2 332 333
2 333 334
2 334 335
2 335 336
2 336 337
2 337 338
2 338 339
2 339 340
2 340 341
2 341 342
2 342 343
2 343 344
2 344 345
2 345 346
2 346 347
2 347 348
2 348 349


POINT_DATA 350
SCALARS a FLOAT 1
LOOKUP_TABLE default
0.0005894628
0.0005894628
0.0005894628
0.0005894628
0.0005894628
0.0005894628
0.0005894628
0.0005894628
0.0005894628
0.0005894628
0.0005894628
0.0005894628
0.0005894628
0.0005894628
0.0005894628
0.0005894628
0.0005894628
0.0005894628
0.0005894628
0.0005894628
0.0005894628
0.0005894628
0.0005894628
0.0005894628
0.0005894628
0.0005894628
0.0005894628
0.0005894628
0.0005894628
0.0005894628
0.0005894628
0.0005894628
0.0005894628
0.0005894628
0.0005894628
0.0005894628
0.0005894628
0.0005894628
0.0005894628
0.0005894628
0.0005894628
0.0005894628
0.0005894628
0.0005894628
0.0005894628
0.0005894628
0.0005894628
0.0005894628
0.0005894628
0.0005894628
0.0005894628
0.0005894628
0.0005894628
0.0005894628
0.0005894628
0.0005894628
0.0005894628
0.0005894628
0.0005894628
0.0005894628
0.0005894628
0.0005894628
0.0005894628
0.0005894628
0.0005894628
0.0005894628
0.0005894628
0.0005894628
0.0005894628
0.0005894628
0.0005894628
0.0005894628
0.0005894628
0.0005894628
0.0005894628
0.0005894628
0.0005894628
0.0005894628
0.0005894628
0.0005894628
0.0005894628
0.0005894628
0.0005894628
0.0005894628
0.0005894628
0.0005894628
0.0005894628
0.0005894628
0.0005894628
0.0005894628
0.0005894628
0.0005894628
0.0005894628
0.0005894628
0.0005894628
0.0005894628
0.0005894628
0.0005894628
0.0005894628
0.0005894628
0.0005894628
0.0005894628
0.0005894628
0.0005894628
0.0005894628
0.0005894628
0.0005894628
0.0005894628
0.0005894628
0.0005894628
0.0005894628
0.0005894628
0.0005894628
0.0005894628
0.0005894628
0.0005894628
0.0005894628
0.0005894628
0.0005894628
0.0005894628
0.0005894628
0.0005894628
0.0005894628
0.0005894628
0.0005894628
0.0005894628
0.0005894628
0.0005894628
0.0005894628
0.0005894628
0.0005894628
0.0005894628
0.0005894628
0.0005894628
0.0005894628
0.0005894628
0.0005894628
0.0005894628
0.0005894628
0.0005894628
0.0005894628
0.0005894628
0.0005894628
0.0005894628
0.0005894628
0.0005894628
0.0005894628
0.0005894628
0.0005894628
0.0005894628
0.0005894628
0.0005894628
0.0005894628
0.0005894628
0.0005894628
0.0005894628
0.0005894628
0.0005894628
0.0005894628
0.0005894628
0.0005894628
0.0005894628
0.0005894628
0.0005894628
0.0005894628
0.0005894628
0.0005894628
0.0005894628
0.0005894628
0.0005894628
0.0005894628
0.0005894628
0.0005894628
0.0005894628
0.0005894628
0.0005894628
0.0005894628
0.0005894628
0.0005894628
0.0005894628
0.0005894628
0.0005894628
0.0005894628
0.0005894628
0.0005894628
0.0005894628
0.0005894628
0.0005894628
0.0005894628
0.0005894628
0.0005894628
0.0005894628
0.0005894628
0.0005894628
0.0005894628
0.0005894628
0.0005894628
0.0005894628
0.0005894628
0.0005894628
0.0005894628
0.0005894628
0.0005894628
0.0005894628
0.0005894628
0.0005894628
0.0005894628
0.0005894628
0.0005894628
0.0005894628
0.0005894628
0.0005894628
0.0005894628
0.0005894628
0.0005894628
0.0005894628
0.0005894628
0.0005894628
0.0005894628
0.0005894628
0.0005894628
0.0005894628
0.0005894628
0.0005894628
0.0005894628
0.0005894628
0.0005894628
0.0005894628
0.0005894628
0.0005894628
0.0005894628
0.0005894628
0.0005894628
0.0005894628
0.0005894628
0.0005894628
0.0005894628
0.0005894628
0.0005894628
0.0005894628
0.0005894628
0.0005894628
0.0005894628
0.0005894628
0.0005894628
0.0005894628
0.0005894628
0.0005894628
0.0005894628
0.0005894628
0.0005894628
0.0005894628
0.0005894628
0.0005894628
0.0005894628
0.0005894628
0.0005894628
0.0005894628
0.0005894628
0.0005894628
0.0005894628
0.0005894628
0.0005894628
0.0005894628
0.0005894628
0.0005894628
0.0005894628
0.0005894628
0.0005894628
0.0005894628
0.0005894628
0.0005894628
0.0005894628
0.0005894628
0.0005894628
0.0005894628
0.0005894628
0.0005894628
0.0005894628
0.0005894628
0.0005894628
0.0005894628
0.0005894628
0.0005894628
0.0005894628
0.0005894628
0.0005894628
0.0005894628
0.0005894628
0.0005894628
0.0005894628
0.0005894628
0.0005894628
0.0005894628
0.0005894628
0.0005894628
0.0005894628
0.0005894628
0.0005894628
0.0005894628
0.0005894628
0.0005894628
0.0005894628
0.0005894628
0.0005894628
0.0005894628
0.0005894628
0.0005894628
0.0005894628
0.0005894628
0.0005894628
0.0005894628
0.0005894628
0.0005894628
0.0005894628
0.0005894628
0.0005894628
0.0005894628
0.0005894628
0.0005894628
0.0005894628
0.0005894628
0.0005894628
0.0005894628
0.0005894628
0.0005894628
0.0005894628
0.0005894628
0.0005894628
0.0005894628
0.0005894628
0.0005894628
0.0005894628
0.0005894628
0.0005894628
0.0005894628
0.0005894628
0.0005894628
0.0005894628
0.0005894628
0.0005894628
0.0005894628
0.0005894628
0.0005894628
0.0005894628
0.0005894628
0.0005894628
0.0005894628
0.0005894628
0.0005894628


SCALARS b FLOAT 1
LOOKUP_TABLE default
0.02357851
0.02357851
0.02357851
0.02357851
0.02357851
0.02357851
0.02357851
0.02357851
0.02357851
0.02357851
0.02357851
0.02357851
0.02357851
0.02357851
0.02357851
0.02357851
0.02357851
0.02357851
0.02357851
0.02357851
0.02357851
0.02357851
0.02357851
0.02357851
0.02357851
0.02357851
0.02357851
0.02357851
0.02357851
0.02357851
0.02357851
0.02357851
0.02357851
0.02357851
0.02357851
0.02357851
0.02357851
0.02357851
0.02357851
0.02357851
0.02357851
0.02357851
0.02357851
0.02357851
0.02357851
0.02357851
0.02357851
0.02357851
0.02357851
0.02357851
0.02357851
0.02357851
0.02357851
0.02357851
0.02357851
0.02357851
0.02357851
0.02357851
0.02357851
0.02357851
0.02357851
0.02357851
0.02357851
0.02357851
0.02357851
0.02357851
0.02357851
0.02357851
0.02357851
0.02357851
0.02357851
0.02357851
0.02357851
0.02357851
0.02357851
0.02357851
0.02357851
0.02357851
0.02357851
0.02357851
0.02357851
0.02357851
0.02357851
0.02357851
0.02357851
0.02357851
0.02357851
0.02357851
0.02357851
0.02357851
0.02357851
0.02357851
0.02357851
0.02357851
0.02357851
0.02357851
0.02357851
0.02357851
0.02357851
0.02357851
0.02357851
0.02357851
0.02357851
0.02357851
0.02357851
0.02357851
0.02357851
0.02357851
0.02357851
0.02357851
0.02357851
0.02357851
0.02357851
0.02357851
0.02357851
0.02357851
0.02357851
0.02357851
0.02357851
0.02357851
0.02357851
0.02357851
0.02357851
0.02357851
0.02357851
0.02357851
0.02357851
0.02357851
0.02357851
0.02357851
0.02357851
0.02357851
0.02357851
0.02357851
0.02357851
0.02357851
0.02357851
0.02357851
0.02357851
0.02357851
0.02357851
0.02357851
0.02357851
0.02357851
0.02357851
0.02357851
0.02357851
0.02357851
0.02357851
0.02357851
0.02357851
0.02357851
0.02357851
0.02357851
0.02357851
0.02357851
0.02357851
0.02357851
0.02357851
0.02357851
0.02357851
0.02357851
0.02357851
0.02357851
0.02357851
0.02357851
0.02357851
0.02357851
0.02357851
0.02357851
0.02357851
0.02357851
0.02357851
0.02357851
0.02357851
0.02357851
0.02357851
0.02357851
0.02357851
0.02357851
0.02357851
0.02357851
0.02357851
0.02357851
0.02357851
0.02357851
0.02357851
0.02357851
0.02357851
0.02357851
0.02357851
0.02357851
0.02357851
0.02357851
0.02357851
0.02357851
0.02357851
0.02357851
0.02357851
0.02357851
0.02357851
0.02357851
0.02357851
0.02357851
0.02357851
0.02357851
0.02357851
0.02357851
0.02357851
0.02357851
0.02357851
0.02357851
0.02357851
0.02357851
0.02357851
0.02357851
0.02357851
0.02357851
0.02357851
0.02357851
0.02357851
0.02357851
0.02357851
0.02357851
0.02357851
0.02357851
0.02357851
0.02357851
0.02357851
0.02357851
0.02357851
0.02357851
0.02357851
0.02357851
0.02357851
0.02357851
0.02357851
0.02357851
0.02357851
0.02357851
0.02357851
0.02357851
0.02357851
0.02357851
0.02357851
0.02357851
0.02357851
0.02357851
0.02357851
0.02357851
0.02357851
0.02357851
0.02357851
0.02357851
0.02357851
0.02357851
0.02357851
0.02357851
0.02357851
0.02357851
0.02357851
0.02357851
0.02357851
0.02357851
0.02357851
0.02357851
0.02357851
0.02357851
0.02357851
0.02357851
0.02357851
0.02357851
0.02357851
0.02357851
0.02357851
0.02357851
0.02357851
0.02357851
0.02357851
0.02357851
0.02357851
0.02357851
0.02357851
0.02357851
0.02357851
0.02357851
0.02357851
0.02357851
0.02357851
0.02357851
0.02357851
0.02357851
0.02357851
0.02357851
0.02357851
0.02357851
0.02357851
0.02357851
0.02357851
0.02357851
0.02357851
0.02357851
0.02357851
0.02357851
0.02357851
0.02357851
0.02357851
0.02357851
0.02357851
0.02357851
0.02357851
0.02357851
0.02357851
0.02357851
0.02357851
0.02357851
0.02357851
0.02357851
0.02357851
0.02357851
0.02357851
0.02357851
0.02357851
0.02357851
0.02357851
0.02357851
0.02357851
0.02357851
0.02357851
0.02357851
0.02357851
0.02357851
0.02357851
0.02357851
0.02357851
0.02357851
0.02357851
0.02357851
0.02357851
0.02357851
0.02357851
0.02357851
0.02357851
0.02357851
0.02357851
0.02357851
0.02357851
0.02357851
0.02357851
0.02357851


VECTORS d1 FLOAT
0 -0.236499 0.9716317
0.02327381 -0.2112365 0.9771578
0.04493207 -0.1858319 0.9815537
0.06495722 -0.1603747 0.9849165
0.08332327 -0.1349451 0.9873434
0.09999072 -0.1096148 0.988932
0.1148987 -0.0844485 0.9897812
0.1279518 -0.05950615 0.9899936
0.1389949 -0.03484446 0.9896799
0.1477595 -0.01051912 0.9889674
0.1537268 0.01341584 0.9880223
0.1557539 0.03694507 0.9871047
0.1526219 0.06033713 0.9864411
0.1458049 0.083891 0.9857501
0.1365452 0.1076124 0.9847715
0.1254404 0.1314507 0.9833542
0.1128331 0.1553501 0.9813944
0.09895111 0.1792561 0.9788135
0.0839615 0.2031158 0.9755483
0.06799624 0.2268779 0.9715467
0.0511652 0.2504926 0.9667655
0.03356366 0.2739111 0.9611692
0.01527685 0.2970861 0.9547285
-0.003617157 0.3199714 0.9474203
-0.02304556 0.3425221 0.9392271
-0.04293955 0.3646948 0.9301365
-0.06323348 0.3864475 0.9201412
-0.08386428 0.4077399 0.9092386
-0.1047711 0.4285337 0.8974307
-0.125895 0.4487924 0.8847236
-0.147179 0.4684814 0.8711277
-0.1685678 0.4875687 0.8566572
-0.1900077 0.5060245 0.8413301
-0.2114472 0.5238213 0.8251675
-0.2328361 0.5409342 0.808194
-0.2541265 0.557341 0.7904371
-0.2752722 0.573022 0.7719268
-0.2962293 0.5879603 0.7526957
-0.3169557 0.6021418 0.7327786
-0.3374117 0.6155547 0.7122119
-0.3575598 0.6281903 0.6910339
-0.377365 0.6400424 0.6692843
-0.3967943 0.6511073 0.6470035
-0.4158175 0.661384 0.6242332
-0.4344064 0.6708738 0.6010153
-0.4525358 0.6795804 0.5773923
-0.4701823 0.6875098 0.5534066
-0.4873255 0.6946699 0.5291008
-0.503947 0.7010708 0.5045167
-0.520031 0.7067245 0.479696
-0.5355639 0.7116445 0.4546795
-0.5505343 0.715846 0.4295072
-0.5649331 0.7193457 0.4042181
-0.5787533 0.7221616 0.37885
-0.5919897 0.7243126 0.3534395
-0.6046393 0.7258188 0.3280218
-0.6167009 0.7267013 0.3026306
-0.6281748 0.7269815 0.2772984
-0.6390631 0.7266818 0.2520556
-0.6493693 0.7258247 0.2269315
-0.6590986 0.7244334 0.2019535
-0.6682572 0.7225311 0.1771473
-0.6768525 0.7201411 0.1525371
-0.6848931 0.7172867 0.1281453
-0.6923887 0.7139912 0.1039928
-0.6993496 0.7102777 0.0800987
-0.705787 0.706169 0.05648072
-0.711713 0.7016875 0.03315486
-0.7171399 0.6968555 0.01013569
-0.722081 0.6916945 -0.01256372
-0.7265495 0.6862256 -0.03493168
-0.7305594 0.6804695 -0.05695786
-0.7341248 0.6744461 -0.07863323
-0.73726 0.6681749 -0.09994999
-0.7399794 0.6616746 -0.1209015
-0.7422977 0.6549633 -0.1414823
-0.7442294 0.6480584 -0.1616878
-0.7457892 0.6409766 -0.1815146
-0.7469915 0.6337339 -0.2009601
-0.7478509 0.6263457 -0.2200227
-0.7483817 0.6188267 -0.2387013
-0.748598 0.6111907 -0.2569959
-0.7485138 0.6034511 -0.2749069
-0.7481429 0.5956204 -0.2924356
-0.7474987 0.5877106 -0.3095836
-0.7465945 0.5797329 -0.3263533
-0.7454433 0.571698 -0.3427473
-0.7440577 0.5636159 -0.358769
-0.7424502 0.5554962 -0.3744218
-0.7406329 0.5473476 -0.3897097
-0.7386174 0.5391784 -0.4046369
-0.7364153 0.5309965 -0.419208
-0.7340376 0.522809 -0.4334277
-0.7314952 0.5146227 -0.4473011
-0.7287985 0.506444 -0.4608333
-0.7259577 0.4982785 -0.4740296
-0.7229825 0.4901317 -0.4868954
-0.7198826 0.4820085 -0.4994365
-0.7166671 0.4739136 -0.5116583
-0.7133449 0.465851 -0.5235666
-0.7099245 0.4578246 -0.5351672
-0.7064142 0.449838 -0.5464658
-0.7028219 0.4418941 -0.5574683
-0.6991555 0.433996 -0.5681804
-0.6954223 0.4261462 -0.5786081
-0.6916293 0.4183469 -0.5887569
-0.6877836 0.4106003 -0.5986327
-0.6838916 0.402908 -0.6082412
-0.6799598 0.3952717 -0.617588
-0.6759943 0.3876927 -0.6266787
-0.6720008 0.3801721 -0.6355187
-0.6679852 0.3727109 -0.6441136
-0.6639527 0.36531 -0.6524687
-0.6599086 0.3579698 -0.6605893
-0.6558579 0.3506908 -0.6684806
-0.6518054 0.3434734 -0.6761477
-0.6477557 0.3363178 -0.6835956
-0.6437131 0.3292239 -0.6908292
-0.639682 0.3221918 -0.6978534
-0.6356664 0.3152212 -0.7046729
-0.6316701 0.3083118 -0.7112923
-0.627697 0.3014634 -0.717716
-0.6237505 0.2946753 -0.7239487
-0.6198342 0.2879472 -0.7299945
-0.6159513 0.2812783 -0.7358577
-0.6121049 0.274668 -0.7415424
-0.6082981 0.2681155 -0.7470525
-0.6045337 0.2616201 -0.7523921
-0.6008145 0.2551809 -0.757565
-0.5971432 0.2487969 -0.7625747
-0.5935222 0.2424673 -0.7674249
-0.589954 0.236191 -0.7721192
-0.586441 0.229967 -0.7766609
-0.5829853 0.2237943 -0.7810533
-0.5795891 0.2176718 -0.7852996
-0.5762543 0.2115983 -0.789403
-0.572983 0.2055728 -0.7933664
-0.569777 0.199594 -0.7971928
-0.566638 0.1936608 -0.800885
-0.5635678 0.187772 -0.8044458
-0.560568 0.1819264 -0.8078777
-0.5576401 0.1761228 -0.8111833
-0.5547855 0.17036 -0.8143651
-0.5520058 0.1646366 -0.8174255
-0.5493022 0.1589516 -0.8203667
-0.546676 0.1533036 -0.8231909
-0.5441285 0.1476914 -0.8259004
-0.5416607 0.1421137 -0.828497
-0.5392739 0.1365692 -0.8309829
-0.536969 0.1310568 -0.8333597
-0.534747 0.1255751 -0.8356294
-0.532609 0.120123 -0.8377936
-0.5305557 0.114699 -0.839854
-0.528588 0.1093021 -0.8418122
-0.5267068 0.1039308 -0.8436696
-0.5249127 0.09858404 -0.8454276
-0.5232066 0.09326048 -0.8470876
-0.521589 0.0879589 -0.8486508
-0.5200606 0.08267805 -0.8501184
-0.518622 0.07741668 -0.8514915
-0.5172737 0.07217356 -0.8527713
-0.5160163 0.06694745 -0.8539586
-0.5148501 0.06173713 -0.8550543
-0.5137757 0.05654136 -0.8560593
-0.5127934 0.05135892 -0.8569744
-0.5119036 0.04618859 -0.8578003
-0.5111066 0.04102915 -0.8585375
-0.5104027 0.03587938 -0.8591867
-0.5097922 0.03073806 -0.8597483
-0.5092752 0.02560399 -0.8602228
-0.5088519 0.02047596 -0.8606105
-0.5085226 0.01535275 -0.8609118
-0.5082873 0.01023315 -0.8611268
-0.508146 0.005115975 -0.8612557
-0.5080989 6.533535e-11 -0.8612987
-0.508146 -0.005115975 -0.8612557
-0.5082873 -0.01023315 -0.8611268
-0.5085226 -0.01535275 -0.8609118
-0.5088519 -0.02047596 -0.8606105
-0.5092752 -0.02560399 -0.8602228
-0.5097922 -0.03073806 -0.8597483
-0.5104027 -0.03587938 -0.8591867
-0.5111066 -0.04102915 -0.8585375
-0.5119036 -0.04618859 -0.8578003
-0.5127934 -0.05135892 -0.8569744
-0.5137757 -0.05654136 -0.8560593
-0.5148501 -0.06173713 -0.8550543
-0.5160163 -0.06694745 -0.8539586
-0.5172737 -0.07217356 -0.8527713
-0.518622 -0.07741668 -0.8514915
-0.5200606 -0.08267805 -0.8501184
-0.521589 -0.0879589 -0.8486508
-0.5232066 -0.09326048 -0.8470876
-0.5249127 -0.09858404 -0.8454276
-0.5267068 -0.1039308 -0.8436696
-0.528588 -0.1093021 -0.8418122
-0.5305557 -0.114699 -0.839854
-0.532609 -0.120123 -0.8377936
-0.534747 -0.1255751 -0.8356294
-0.536969 -0.1310568 -0.8333597
-0.5392739 -0.1365692 -0.8309829
-0.5416607 -0.1421137 -0.828497
-0.5441285 -0.1476914 -0.8259004
-0.546676 -0.1533036 -0.8231909
-0.5493022 -0.1589516 -0.8203667
-0.5520058 -0.1646366 -0.8174255
-0.5547855 -0.17036 -0.8143651
-0.5576401 -0.1761228 -0.8111833
-0.560568 -0.1819264 -0.8078777
-0.5635678 -0.187772 -0.8044458
-0.566638 -0.1936608 -0.800885
-0.569777 -0.199594 -0.7971928
-0.572983 -0.2055728 -0.7933664
-0.5762543 -0.2115983 -0.789403
-0.5795891 -0.2176718 -0.7852996
-0.5829853 -0.2237943 -0.7810533
-0.586441 -0.229967 -0.7766609
-0.589954 -0.236191 -0.7721192
-0.5935222 -0.2424673 -0.7674249
-0.5971432 -0.2487969 -0.7625747
-0.6008145 -0.2551809 -0.757565
-0.6045337 -0.2616201 -0.7523921
-0.6082981 -0.2681155 -0.7470525
-0.6121049 -0.274668 -0.7415424