# vtk DataFile Version 2.0
Written badly by Kevin Korner
ASCII
DATASET POLYDATA
POINTS 350 FLOAT
0 0 0
0.00286533 0 0
0.005730519 2.510803e-05 -1.307961e-05
0.00859529 7.538707e-05 -3.906639e-05
0.01145936 0.0001508958 -7.778686e-05
0.01432246 0.0002516887 -0.0001290666
0.0171843 0.000377816 -0.0001927301
0.02004462 0.0005293236 -0.0002686012
0.02290313 0.0007062535 -0.0003565028
0.02575956 0.0009086431 -0.0004562569
0.02861364 0.001136526 -0.000567685
0.03146509 0.001389932 -0.0006906078
0.03431365 0.001668886 -0.0008248452
0.03715904 0.001973409 -0.0009702168
0.04000099 0.00230352 -0.001126541
0.04283924 0.00265923 -0.001293637
0.04567352 0.00304055 -0.001471323
0.04850357 0.003447484 -0.001659415
0.05132911 0.003880036 -0.001857731
0.05414988 0.004338201 -0.002066088
0.05696564 0.004821975 -0.002284303
0.0597761 0.005331347 -0.002512191
0.06258102 0.005866304 -0.002749569
0.06538014 0.006426828 -0.002996252
0.06817321 0.0070129 -0.003252058
0.07095996 0.007624493 -0.0035168
0.07374014 0.00826158 -0.003790296
0.07651351 0.00892413 -0.00407236
0.07927982 0.009612106 -0.004362808
0.08203881 0.01032547 -0.004661457
0.08479024 0.01106418 -0.004968122
0.08753387 0.01182819 -0.00528262
0.09026945 0.01261746 -0.005604766
0.09299674 0.01343192 -0.005934377
0.0957155 0.01427153 -0.00627127
0.0984255 0.01513623 -0.006615262
0.1011265 0.01602595 -0.006966171
0.1038183 0.01694062 -0.007323813
0.1065005 0.01788019 -0.007688008
0.1091731 0.01884458 -0.008058573
0.1118358 0.01983371 -0.008435328
0.1144883 0.02084752 -0.008818093
0.1171304 0.02188591 -0.009206687
0.119762 0.0229488 -0.00960093
0.1223827 0.02403612 -0.01000064
0.1249923 0.02514777 -0.01040565
0.1275907 0.02628365 -0.01081577
0.1301777 0.02744369 -0.01123083
0.1327529 0.02862777 -0.01165066
0.1353162 0.02983579 -0.01207506
0.1378674 0.03106767 -0.01250388
0.1404063 0.03232329 -0.01293694
0.1429327 0.03360254 -0.01337406
0.1454463 0.03490531 -0.01381507
0.1479471 0.0362315 -0.0142598
0.1504346 0.03758099 -0.01470808
0.1529089 0.03895365 -0.01515974
0.1553696 0.04034938 -0.0156146
0.1578166 0.04176804 -0.01607251
0.1602497 0.04320952 -0.0165333
0.1626687 0.04467369 -0.01699679
0.1650734 0.04616042 -0.01746282
0.1674636 0.04766958 -0.01793123
0.1698392 0.04920104 -0.01840186
0.1721999 0.05075465 -0.01887453
0.1745456 0.0523303 -0.0193491
0.176876 0.05392782 -0.0198254
0.1791911 0.05554709 -0.02030327
0.1814907 0.05718797 -0.02078256
0.1837745 0.0588503 -0.0212631
0.1860424 0.06053394 -0.02174474
0.1882943 0.06223874 -0.02222733
0.1905299 0.06396456 -0.02271071
0.1927492 0.06571123 -0.02319474
0.1949518 0.06747861 -0.02367925
0.1971378 0.06926653 -0.0241641
0.1993068 0.07107485 -0.02464914
0.2014589 0.0729034 -0.02513422
0.2035937 0.07475202 -0.0256192
0.2057112 0.07662056 -0.02610393
0.2078112 0.07850883 -0.02658827
0.2098935 0.08041669 -0.02707208
0.211958 0.08234396 -0.0275552
0.2140046 0.08429048 -0.02803752
0.2160331 0.08625607 -0.02851887
0.2180434 0.08824056 -0.02899913
0.2200353 0.09024378 -0.02947817
0.2220088 0.09226557 -0.02995584
0.2239635 0.09430573 -0.03043201
0.2258995 0.09636409 -0.03090655
0.2278166 0.09844048 -0.03137934
0.2297146 0.1005347 -0.03185023
0.2315935 0.1026466 -0.03231911
0.2334531 0.104776 -0.03278584
0.2352932 0.1069227 -0.0332503
0.2371138 0.1090865 -0.03371237
0.2389147 0.1112672 -0.03417193
0.2406959 0.1134647 -0.03462884
0.2424571 0.1156787 -0.035083
0.2441983 0.1179091 -0.03553428
0.2459193 0.1201557 -0.03598257
0.2476201 0.1224183 -0.03642776
0.2493006 0.1246966 -0.03686972
0.2509605 0.1269906 -0.03730834
0.2525999 0.1293 -0.03774352
0.2542186 0.1316246 -0.03817515
0.2558165 0.1339642 -0.03860311
0.2573935 0.1363186 -0.0390273
0.2589494 0.1386876 -0.03944761
0.2604843 0.1410711 -0.03986395
0.261998 0.1434688 -0.0402762
0.2634904 0.1458805 -0.04068427
0.2649614 0.148306 -0.04108805
0.2664109 0.1507452 -0.04148745
0.2678389 0.1531977 -0.04188238
0.2692452 0.1556635 -0.04227273
0.2706297 0.1581423 -0.04265842
0.2719924 0.1606339 -0.04303935
0.2733332 0.1631381 -0.04341543
0.2746519 0.1656547 -0.04378657
0.2759486 0.1681835 -0.04415269
0.2772231 0.1707243 -0.04451369
0.2784753 0.1732768 -0.0448695
0.2797053 0.1758409 -0.04522003
0.2809128 0.1784163 -0.0455652
0.2820979 0.1810029 -0.04590493
0.2832604 0.1836004 -0.04623914
0.2844003 0.1862086 -0.04656775
0.2855175 0.1888273 -0.04689069
0.2866119 0.1914563 -0.04720789
0.2876835 0.1940954 -0.04751927
0.2887323 0.1967443 -0.04782476
0.2897581 0.1994029 -0.0481243
0.2907608 0.202071 -0.0484178
0.2917405 0.2047482 -0.04870522
0.2926971 0.2074345 -0.04898648
0.2936305 0.2101295 -0.04926152
0.2945406 0.2128331 -0.04953028
0.2954275 0.2155451 -0.04979271
0.296291 0.2182652 -0.05004873
0.2971311 0.2209932 -0.05029829
0.2979477 0.2237289 -0.05054135
0.2987409 0.2264721 -0.05077784
0.2995105 0.2292226 -0.05100771
0.3002565 0.2319801 -0.05123091
0.3009789 0.2347444 -0.0514474
0.3016776 0.2375153 -0.05165713
0.3023526 0.2402926 -0.05186004
0.3030038 0.243076 -0.0520561
0.3036312 0.2458654 -0.05224526
0.3042348 0.2486605 -0.05242749
0.3048145 0.2514611 -0.05260273
0.3053703 0.254267 -0.05277096
0.3059022 0.2570779 -0.05293214
0.3064101 0.2598936 -0.05308623
0.3068941 0.262714 -0.0532332
0.307354 0.2655387 -0.05337302
0.3077898 0.2683676 -0.05350565
0.3082016 0.2712004 -0.05363108
0.3085893 0.2740369 -0.05374926
0.3089528 0.2768769 -0.05386018
0.3092923 0.2797202 -0.05396382
0.3096075 0.2825665 -0.05406014
0.3098986 0.2854156 -0.05414914
0.3101655 0.2882673 -0.05423078
0.3104081 0.2911214 -0.05430506
0.3106266 0.2939776 -0.05437196
0.3108208 0.2968357 -0.05443146
0.3109907 0.2996955 -0.05448355
0.3111364 0.3025568 -0.05452822
0.3112578 0.3054193 -0.05456546
0.311355 0.3082828 -0.05459526
0.3114278 0.3111471 -0.05461761
0.3114764 0.314012 -0.05463252
0.3115007 0.3168772 -0.05463997
0.3115007 0.3197426 -0.05463997
0.3114764 0.3226078 -0.05463252
0.3114278 0.3254726 -0.05461761
0.311355 0.328337 -0.05459526
0.3112578 0.3312005 -0.05456546
0.3111364 0.334063 -0.05452822
0.3109907 0.3369243 -0.05448355
0.3108208 0.3397841 -0.05443146
0.3106266 0.3426422 -0.05437196
0.3104081 0.3454984 -0.05430506
0.3101655 0.3483525 -0.05423078
0.3098986 0.3512042 -0.05414914
0.3096075 0.3540533 -0.05406014
0.3092923 0.3568996 -0.05396382
0.3089528 0.3597429 -0.05386018
0.3085893 0.3625829 -0.05374926
0.3082016 0.3654194 -0.05363108
0.3077898 0.3682522 -0.05350565
0.307354 0.3710811 -0.05337302
0.3068941 0.3739058 -0.0532332
0.3064101 0.3767262 -0.05308623
0.3059022 0.3795419 -0.05293214
0.3053703 0.3823528 -0.05277096
0.3048145 0.3851587 -0.05260273
0.3042348 0.3879593 -0.05242749
0.3036312 0.3907544 -0.05224526
0.3030038 0.3935438 -0.0520561
0.3023526 0.3963272 -0.05186004
0.3016776 0.3991045 -0.05165713
0.3009789 0.4018754 -0.0514474
0.3002565 0.4046397 -0.05123091
0.2995105 0.4073972 -0.05100771
0.2987409 0.4101477 -0.05077784
0.2979477 0.4128909 -0.05054135
0.2971311 0.4156266 -0.05029829
0.296291 0.4183546 -0.05004873
0.2954275 0.4210747 -0.04979271
0.2945406 0.4237866 -0.04953028
0.2936305 0.4264903 -0.04926152
0.2926971 0.4291853 -0.04898648
0.2917405 0.4318716 -0.04870522
0.2907608 0.4345488 -0.0484178
0.2897581 0.4372168 -0.0481243
0.2887323 0.4398754 -0.04782476
0.2876835 0.4425244 -0.04751927
0.2866119 0.4451635 -0.04720789
0.2855175 0.4477925 -0.04689069
0.2844003 0.4504112 -0.04656775
0.2832604 0.4530194 -0.04623914
0.2820979 0.4556169 -0.04590493
0.2809128 0.4582035 -0.0455652
0.2797053 0.4607789 -0.04522003
0.2784753 0.463343 -0.0448695
0.2772231 0.4658955 -0.04451369
0.2759486 0.4684363 -0.04415269
0.2746519 0.4709651 -0.04378657
0.2733332 0.4734816 -0.04341543
0.2719924 0.4759858 -0.04303935
0.2706297 0.4784774 -0.04265842
0.2692452 0.4809562 -0.04227273
0.2678389 0.483422 -0.04188238
0.2664109 0.4858746 -0.04148745
0.2649614 0.4883138 -0.04108805
0.2634904 0.4907393 -0.04068427
0.261998 0.493151 -0.0402762
0.2604843 0.4955487 -0.03986395
0.2589494 0.4979322 -0.03944761
0.2573935 0.5003012 -0.0390273
0.2558165 0.5026556 -0.03860311
0.2542186 0.5049952 -0.03817515
0.2525999 0.5073198 -0.03774352
0.2509605 0.5096292 -0.03730834
0.2493006 0.5119231 -0.03686972
0.2476201 0.5142015 -0.03642776
0.2459193 0.5164641 -0.03598257
0.2441983 0.5187106 -0.03553428
0.2424571 0.520941 -0.035083
0.2406959 0.5231551 -0.03462884
0.2389147 0.5253525 -0.03417193
0.2371138 0.5275333 -0.03371237
0.2352932 0.5296971 -0.0332503
0.2334531 0.5318438 -0.03278584
0.2315935 0.5339732 -0.03231911
0.2297146 0.5360851 -0.03185023
0.2278166 0.5381793 -0.03137934
0.2258995 0.5402557 -0.03090655
0.2239635 0.542314 -0.03043201
0.2220088 0.5443542 -0.02995584
0.2200353 0.546376 -0.02947817
0.2180434 0.5483792 -0.02899913
0.2160331 0.5503637 -0.02851887
0.2140046 0.5523293 -0.02803752
0.211958 0.5542758 -0.0275552
0.2098935 0.5562031 -0.02707208
0.2078112 0.5581109 -0.02658827
0.2057112 0.5599992 -0.02610393
0.2035937 0.5618677 -0.0256192
0.2014589 0.5637164 -0.02513422
0.1993068 0.5655449 -0.02464914
0.1971378 0.5673532 -0.0241641
0.1949518 0.5691412 -0.02367925
0.1927492 0.5709085 -0.02319474
0.1905299 0.5726552 -0.02271071
0.1882943 0.574381 -0.02222733
0.1860424 0.5760858 -0.02174474
0.1837745 0.5777695 -0.0212631
0.1814907 0.5794318 -0.02078256
0.1791911 0.5810727 -0.02030327
0.176876 0.5826919 -0.0198254
0.1745456 0.5842895 -0.0193491
0.1721999 0.5858651 -0.01887453
0.1698392 0.5874187 -0.01840186
0.1674636 0.5889502 -0.01793123
0.1650734 0.5904594 -0.01746282
0.1626687 0.5919461 -0.01699679
0.1602497 0.5934102 -0.0165333
0.1578166 0.5948517 -0.01607251
0.1553696 0.5962704 -0.0156146
0.1529089 0.5976661 -0.01515974
0.1504346 0.5990388 -0.01470808
0.1479471 0.6003883 -0.0142598
0.1454463 0.6017145 -0.01381507
0.1429327 0.6030172 -0.01337406
0.1404063 0.6042965 -0.01293694
0.1378674 0.6055521 -0.01250388
0.1353162 0.606784 -0.01207506
0.1327529 0.607992 -0.01165066
0.1301777 0.6091761 -0.01123083
0.1275907 0.6103361 -0.01081577
0.1249923 0.611472 -0.01040565
0.1223827 0.6125837 -0.01000064
0.119762 0.613671 -0.00960093
0.1171304 0.6147339 -0.009206687
0.1144883 0.6157723 -0.008818093
0.1118358 0.6167861 -0.008435328
0.1091731 0.6177752 -0.008058573
0.1065005 0.6187396 -0.007688008
0.1038183 0.6196791 -0.007323813
0.1011265 0.6205938 -0.006966171
0.0984255 0.6214835 -0.006615262
0.0957155 0.6223482 -0.00627127
0.09299674 0.6231878 -0.005934377
0.09026945 0.6240023 -0.005604766
0.08753387 0.6247916 -0.00528262
0.08479024 0.6255556 -0.004968122
0.08203881 0.6262943 -0.004661457
0.07927982 0.6270077 -0.004362808
0.07651351 0.6276956 -0.00407236
0.07374014 0.6283582 -0.003790296
0.07095996 0.6289953 -0.0035168
0.06817321 0.6296069 -0.003252058
0.06538014 0.6301929 -0.002996252
0.06258102 0.6307535 -0.002749569
0.0597761 0.6312884 -0.002512191
0.05696564 0.6317978 -0.002284303
0.05414988 0.6322816 -0.002066088
0.05132911 0.6327397 -0.001857731
0.04850357 0.6331723 -0.001659415
0.04567352 0.6335792 -0.001471323
0.04283924 0.6339605 -0.001293637
0.04000099 0.6343163 -0.001126541
0.03715904 0.6346464 -0.0009702168
0.03431365 0.6349509 -0.0008248452
0.03146509 0.6352298 -0.0006906078
0.02861364 0.6354832 -0.000567685
0.02575956 0.6357111 -0.0004562569
0.02290313 0.6359135 -0.0003565028
0.02004462 0.6360904 -0.0002686012
0.0171843 0.636242 -0.0001927301
0.01432246 0.6363681 -0.0001290666
0.01145936 0.6364689 -7.778686e-05
0.00859529 0.6365444 -3.906639e-05
0.005730519 0.6365947 -1.307961e-05
0.00286533 0.6366198 0
0 0.6366198 0

LINES 349 1047
2 0 1
2 1 2
2 2 3
2 3 4
2 4 5
2 5 6
2 6 7
2 7 8
2 8 9
2 9 10
2 10 11
2 11 12
2 12 13
2 13 14
2 14 15
2 15 16
2 16 17
2 17 18
2 18 19
2 19 20
2 20 21
2 21 22
2 22 23
2 23 24
2 24 25
2 25 26
2 26 27
2 27 28
2 28 29
2 29 30
2 30 31
2 31 32
2 32 33
2 33 34
2 34 35
2 35 36
2 36 37
2 37 38
2 38 39
2 39 40
2 40 41
2 41 42
2 42 43
2 43 44
2 44 45
2 45 46
2 46 47
2 47 48
2 48 49
2 49 50
2 50 51
2 51 52
2 52 53
2 53 54
2 54 55
2 55 56
2 56 57
2 57 58
2 58 59
2 59 60
2 60 61
2 61 62
2 62 63
2 63 64
2 64 65
2 65 66
2 66 67
2 67 68
2 68 69
2 69 70
2 70 71
2 71 72
2 72 73
2 73 74
2 74 75
2 75 76
2 76 77
2 77 78
2 78 79
2 79 80
2 80 81
2 81 82
2 82 83
2 83 84
2 84 85
2 85 86
2 86 87
2 87 88
2 88 89
2 89 90
2 90 91
2 91 92
2 92 93
2 93 94
2 94 95
2 95 96
2 96 97
2 97 98
2 98 99
2 99 100
2 100 101
2 101 102
2 102 103
2 103 104
2 104 105
2 105 106
2 106 107
2 107 108
2 108 109
2 109 110
2 110 111
2 111 112
2 112 113
2 113 114
2 114 115
2 115 116
2 116 117
2 117 118
2 118 119
2 119 120
2 120 121
2 121 122
2 122 123
2 123 124
2 124 125
2 125 126
2 126 127
2 127 128
2 128 129
2 129 130
2 130 131
2 131 132
2 132 133
2 133 134
2 134 135
2 135 136
2 136 137
2 137 138
2 138 139
2 139 140
2 140 141
2 141 142
2 142 143
2 143 144
2 144 145
2 145 146
2 146 147
2 147 148
2 148 149
2 149 150
2 150 151
2 151 152
2 152 153
2 153 154
2 154 155
2 155 156
2 156 157
2 157 158
2 158 159
2 159 160
2 160 161
2 161 162
2 162 163
2 163 164
2 164 165
2 165 166
2 166 167
2 167 168
2 168 169
2 169 170
2 170 171
2 171 172
2 172 173
2 173 174
2 174 175
2 175 176
2 176 177
2 177 178
2 178 179
2 179 180
2 180 181
2 181 182
2 182 183
2 183 184
2 184 185
2 185 186
2 186 187
2 187 188
2 188 189
2 189 190
2 190 191
2 191 192
2 192 193
2 193 194
2 194 195
2 195 196
2 196 197
2 197 198
2 198 199
2 199 200
2 200 201
2 201 202
2 202 203
2 203 204
2 204 205
2 205 206
2 206 207
2 207 208
2 208 209
2 209 210
2 210 211
2 211 212
2 212 213
2 213 214
2 214 215
2 215 216
2 216 217
2 217 218
2 218 219
2 219 220
2 220 221
2 221 222
2 222 223
2 223 224
2 224 225
2 225 226
2 226 227
2 227 228
2 228 229
2 229 230
2 230 231
2 231 232
2 232 233
2 233 234
2 234 235
2 235 236
2 236 237
2 237 238
2 238 239
2 239 240
2 240 241
2 241 242
2 242 243
2 243 244
2 244 245
2 245 246
2 246 247
2 247 248
2 248 249
2 249 250
2 250 251
2 251 252
2 252 253
2 253 254
2 254 255
2 255 256
2 256 257
2 257 258
2 258 259
2 259 260
2 260 261
2 261 262
2 262 263
2 263 264
2 264 265
2 265 266
2 266 267
2 267 268
2 268 269
2 269 270
2 270 271
2 271 272
2 272 273
2 273 274
2 274 275
2 275 276
2 276 277
2 277 278
2 278 279
2 279 280
2 280 281
2 281 282
2 282 283
2 283 284
2 284 285
2 285 286
2 286 287
2 287 288
2 288 289
2 289 290
2 290 291
2 291 292
2 292 293
2 293 294
2 294 295
2 295 296
2 296 297
2 297 298
2 298 299
2 299 300
2 300 301
2 301 302
2 302 303
2 303 304
2 304 305
2 305 306
2 306 307
2 307 308
2 308 309
2 309 310
2 310 311
2 311 312
2 312 313
2 313 314
2 314 315
2 315 316
2 316 317
2 317 318
2 318 319
2 319 320
2 320 321
2 321 322
2 322 323
2 323 324
2 324 325
2 325 326
2 326 327
2 327 328
2 328 329
2 329 330
2 330 331
2 331 332
2 332 333
2 333 334
2 334 335
2 335 336
2 336 337
2 337 338
2 338 339
2 339 340
2 340 341
2 341 342
2 342 343
2 343 344
2 344 345
2 345 346
2 346 347
2 347 348
2 348 349


POINT_DATA 350
SCALARS a FLOAT 1
LOOKUP_TABLE default
0.0005894628
0.0005894628
0.0005894628
0.0005894628
0.0005894628
0.0005894628
0.0005894628
0.0005894628
0.0005894628
0.0005894628
0.0005894628
0.0005894628
0.0005894628
0.0005894628
0.0005894628
0.0005894628
0.0005894628
0.0005894628
0.0005894628
0.0005894628
0.0005894628
0.0005894628
0.0005894628
0.0005894628
0.0005894628
0.0005894628
0.0005894628
0.0005894628
0.0005894628
0.0005894628
0.0005894628
0.0005894628
0.0005894628
0.0005894628
0.0005894628
0.0005894628
0.0005894628
0.0005894628
0.0005894628
0.0005894628
0.0005894628
0.0005894628
0.0005894628
0.0005894628
0.0005894628
0.0005894628
0.0005894628
0.0005894628
0.0005894628
0.0005894628
0.0005894628
0.0005894628
0.0005894628
0.0005894628
0.0005894628
0.0005894628
0.0005894628
0.0005894628
0.0005894628
0.0005894628
0.0005894628
0.0005894628
0.0005894628
0.0005894628
0.0005894628
0.0005894628
0.0005894628
0.0005894628
0.0005894628
0.0005894628
0.0005894628
0.0005894628
0.0005894628
0.0005894628
0.0005894628
0.0005894628
0.0005894628
0.0005894628
0.0005894628
0.0005894628
0.0005894628
0.0005894628
0.0005894628
0.0005894628
0.0005894628
0.0005894628
0.0005894628
0.0005894628
0.0005894628
0.0005894628
0.0005894628
0.0005894628
0.0005894628
0.0005894628
0.0005894628
0.0005894628
0.0005894628
0.0005894628
0.0005894628
0.0005894628
0.0005894628
0.0005894628
0.0005894628
0.0005894628
0.0005894628
0.0005894628
0.0005894628
0.0005894628
0.0005894628
0.0005894628
0.0005894628
0.0005894628
0.0005894628
0.0005894628
0.0005894628
0.0005894628
0.0005894628
0.0005894628
0.0005894628
0.0005894628
0.0005894628
0.0005894628
0.0005894628
0.0005894628
0.0005894628
0.0005894628
0.0005894628
0.0005894628
0.0005894628
0.0005894628
0.0005894628
0.0005894628
0.0005894628
0.0005894628
0.0005894628
0.0005894628
0.0005894628
0.0005894628
0.0005894628
0.0005894628
0.0005894628
0.0005894628
0.0005894628
0.0005894628
0.0005894628
0.0005894628
0.0005894628
0.0005894628
0.0005894628
0.0005894628
0.0005894628
0.0005894628
0.0005894628
0.0005894628
0.0005894628
0.0005894628
0.0005894628
0.0005894628
0.0005894628
0.0005894628
0.0005894628
0.0005894628
0.0005894628
0.0005894628
0.0005894628
0.0005894628
0.0005894628
0.0005894628
0.0005894628
0.0005894628
0.0005894628
0.0005894628
0.0005894628
0.0005894628
0.0005894628
0.0005894628
0.0005894628
0.0005894628
0.0005894628
0.0005894628
0.0005894628
0.0005894628
0.0005894628
0.0005894628
0.0005894628
0.0005894628
0.0005894628
0.0005894628
0.0005894628
0.0005894628
0.0005894628
0.0005894628
0.0005894628
0.0005894628
0.0005894628
0.0005894628
0.0005894628
0.0005894628
0.0005894628
0.0005894628
0.0005894628
0.0005894628
0.0005894628
0.0005894628
0.0005894628
0.0005894628
0.0005894628
0.0005894628
0.0005894628
0.0005894628
0.0005894628
0.0005894628
0.0005894628
0.0005894628
0.0005894628
0.0005894628
0.0005894628
0.0005894628
0.0005894628
0.0005894628
0.0005894628
0.0005894628
0.0005894628
0.0005894628
0.0005894628
0.0005894628
0.0005894628
0.0005894628
0.0005894628
0.0005894628
0.0005894628
0.0005894628
0.0005894628
0.0005894628
0.0005894628
0.0005894628
0.0005894628
0.0005894628
0.0005894628
0.0005894628
0.0005894628
0.0005894628
0.0005894628
0.0005894628
0.0005894628
0.0005894628
0.0005894628
0.0005894628
0.0005894628
0.0005894628
0.0005894628
0.0005894628
0.0005894628
0.0005894628
0.0005894628
0.0005894628
0.0005894628
0.0005894628
0.0005894628
0.0005894628
0.0005894628
0.0005894628
0.0005894628
0.0005894628
0.0005894628
0.0005894628
0.0005894628
0.0005894628
0.0005894628
0.0005894628
0.0005894628
0.0005894628
0.0005894628
0.0005894628
0.0005894628
0.0005894628
0.0005894628
0.0005894628
0.0005894628
0.0005894628
0.0005894628
0.0005894628
0.0005894628
0.0005894628
0.0005894628
0.0005894628
0.0005894628
0.0005894628
0.0005894628
0.0005894628
0.0005894628
0.0005894628
0.0005894628
0.0005894628
0.0005894628
0.0005894628
0.0005894628
0.0005894628
0.0005894628
0.0005894628
0.0005894628
0.0005894628
0.0005894628
0.0005894628
0.0005894628
0.0005894628
0.0005894628
0.0005894628
0.0005894628
0.0005894628
0.0005894628
0.0005894628
0.0005894628
0.0005894628
0.0005894628
0.0005894628
0.0005894628
0.0005894628
0.0005894628
0.0005894628
0.0005894628
0.0005894628
0.0005894628
0.0005894628
0.0005894628
0.0005894628
0.0005894628
0.0005894628
0.0005894628
0.0005894628
0.0005894628
0.0005894628
0.0005894628
0.0005894628
0.0005894628
0.0005894628
0.0005894628
0.0005894628
0.0005894628
0.0005894628
0.0005894628
0.0005894628
0.0005894628
0.0005894628
0.0005894628
0.0005894628
0.0005894628
0.0005894628
0.0005894628
0.0005894628


SCALARS b FLOAT 1
LOOKUP_TABLE default
0.02357851
0.02357851
0.02357851
0.02357851
0.02357851
0.02357851
0.02357851
0.02357851
0.02357851
0.02357851
0.02357851
0.02357851
0.02357851
0.02357851
0.02357851
0.02357851
0.02357851
0.02357851
0.02357851
0.02357851
0.02357851
0.02357851
0.02357851
0.02357851
0.02357851
0.02357851
0.02357851
0.02357851
0.02357851
0.02357851
0.02357851
0.02357851
0.02357851
0.02357851
0.02357851
0.02357851
0.02357851
0.02357851
0.02357851
0.02357851
0.02357851
0.02357851
0.02357851
0.02357851
0.02357851
0.02357851
0.02357851
0.02357851
0.02357851
0.02357851
0.02357851
0.02357851
0.02357851
0.02357851
0.02357851
0.02357851
0.02357851
0.02357851
0.02357851
0.02357851
0.02357851
0.02357851
0.02357851
0.02357851
0.02357851
0.02357851
0.02357851
0.02357851
0.02357851
0.02357851
0.02357851
0.02357851
0.02357851
0.02357851
0.02357851
0.02357851
0.02357851
0.02357851
0.02357851
0.02357851
0.02357851
0.02357851
0.02357851
0.02357851
0.02357851
0.02357851
0.02357851
0.02357851
0.02357851
0.02357851
0.02357851
0.02357851
0.02357851
0.02357851
0.02357851
0.02357851
0.02357851
0.02357851
0.02357851
0.02357851
0.02357851
0.02357851
0.02357851
0.02357851
0.02357851
0.02357851
0.02357851
0.02357851
0.02357851
0.02357851
0.02357851
0.02357851
0.02357851
0.02357851
0.02357851
0.02357851
0.02357851
0.02357851
0.02357851
0.02357851
0.02357851
0.02357851
0.02357851
0.02357851
0.02357851
0.02357851
0.02357851
0.02357851
0.02357851
0.02357851
0.02357851
0.02357851
0.02357851
0.02357851
0.02357851
0.02357851
0.02357851
0.02357851
0.02357851
0.02357851
0.02357851
0.02357851
0.02357851
0.02357851
0.02357851
0.02357851
0.02357851
0.02357851
0.02357851
0.02357851
0.02357851
0.02357851
0.02357851
0.02357851
0.02357851
0.02357851
0.02357851
0.02357851
0.02357851
0.02357851
0.02357851
0.02357851
0.02357851
0.02357851
0.02357851
0.02357851
0.02357851
0.02357851
0.02357851
0.02357851
0.02357851
0.02357851
0.02357851
0.02357851
0.02357851
0.02357851
0.02357851
0.02357851
0.02357851
0.02357851
0.02357851
0.02357851
0.02357851
0.02357851
0.02357851
0.02357851
0.02357851
0.02357851
0.02357851
0.02357851
0.02357851
0.02357851
0.02357851
0.02357851
0.02357851
0.02357851
0.02357851
0.02357851
0.02357851
0.02357851
0.02357851
0.02357851
0.02357851
0.02357851
0.02357851
0.02357851
0.02357851
0.02357851
0.02357851
0.02357851
0.02357851
0.02357851
0.02357851
0.02357851
0.02357851
0.02357851
0.02357851
0.02357851
0.02357851
0.02357851
0.02357851
0.02357851
0.02357851
0.02357851
0.02357851
0.02357851
0.02357851
0.02357851
0.02357851
0.02357851
0.02357851
0.02357851
0.02357851
0.02357851
0.02357851
0.02357851
0.02357851
0.02357851
0.02357851
0.02357851
0.02357851
0.02357851
0.02357851
0.02357851
0.02357851
0.02357851
0.02357851
0.02357851
0.02357851
0.02357851
0.02357851
0.02357851
0.02357851
0.02357851
0.02357851
0.02357851
0.02357851
0.02357851
0.02357851
0.02357851
0.02357851
0.02357851
0.02357851
0.02357851
0.02357851
0.02357851
0.02357851
0.02357851
0.02357851
0.02357851
0.02357851
0.02357851
0.02357851
0.02357851
0.02357851
0.02357851
0.02357851
0.02357851
0.02357851
0.02357851
0.02357851
0.02357851
0.02357851
0.02357851
0.02357851
0.02357851
0.02357851
0.02357851
0.02357851
0.02357851
0.02357851
0.02357851
0.02357851
0.02357851
0.02357851
0.02357851
0.02357851
0.02357851
0.02357851
0.02357851
0.02357851
0.02357851
0.02357851
0.02357851
0.02357851
0.02357851
0.02357851
0.02357851
0.02357851
0.02357851
0.02357851
0.02357851
0.02357851
0.02357851
0.02357851
0.02357851
0.02357851
0.02357851
0.02357851
0.02357851
0.02357851
0.02357851
0.02357851
0.02357851
0.02357851
0.02357851
0.02357851
0.02357851
0.02357851
0.02357851
0.02357851
0.02357851
0.02357851
0.02357851
0.02357851
0.02357851
0.02357851
0.02357851
0.02357851
0.02357851
0.02357851
0.02357851
0.02357851
0.02357851
0.02357851
0.02357851
0.02357851
0.02357851
0.02357851
0.02357851


VECTORS d1 FLOAT
0 0.8852313 -0.4651511
-0.009880353 0.8881683 -0.459412
-0.01975221 0.8909695 -0.4536333
-0.0296141 0.893635 -0.4478163
-0.03946453 0.8961651 -0.4419623
-0.04930207 0.8985601 -0.4360724
-0.05912528 0.9008202 -0.4301479
-0.06893276 0.9029457 -0.4241902
-0.0787231 0.9049371 -0.4182004
-0.08849493 0.9067946 -0.4121798
-0.0982469 0.9085187 -0.4061297
-0.1079777 0.9101098 -0.4000513
-0.1176859 0.9115683 -0.3939459
-0.1273704 0.9128946 -0.3878146
-0.1370297 0.9140894 -0.3816589
-0.1466628 0.915153 -0.3754798
-0.1562682 0.916086 -0.3692787
-0.1658449 0.9168889 -0.3630567
-0.1753915 0.9175624 -0.3568151
-0.184907 0.918107 -0.3505551
-0.1943902 0.9185233 -0.344278
-0.2038399 0.918812 -0.3379849
-0.2132551 0.9189737 -0.331677
-0.2226346 0.919009 -0.3253556
-0.2319774 0.9189187 -0.3190218
-0.2412824 0.9187035 -0.3126768
-0.2505486 0.918364 -0.3063218
-0.259775 0.917901 -0.2999579
-0.2689606 0.9173152 -0.2935864
-0.2781044 0.9166075 -0.2872084
-0.2872055 0.9157785 -0.2808251
-0.2962629 0.9148291 -0.2744375
-0.3052758 0.9137601 -0.2680468
-0.3142433 0.9125723 -0.2616541
-0.3231645 0.9112666 -0.2552606
-0.3320385 0.9098437 -0.2488674
-0.3408645 0.9083045 -0.2424755
-0.3496418 0.9066499 -0.236086
-0.3583695 0.9048807 -0.2297001
-0.3670469 0.902998 -0.2233188
-0.3756732 0.9010024 -0.2169431
-0.3842477 0.898895 -0.2105741
-0.3927697 0.8966767 -0.2042129
-0.4012385 0.8943483 -0.1978604
-0.4096535 0.8919109 -0.1915178
-0.4180139 0.8893652 -0.1851859
-0.4263192 0.8867124 -0.1788659
-0.4345688 0.8839533 -0.1725586
-0.442762 0.8810889 -0.1662652
-0.4508983 0.8781202 -0.1599864
-0.4589771 0.8750481 -0.1537234
-0.4669979 0.8718736 -0.1474771
-0.4749601 0.8685976 -0.1412483
-0.4828633 0.8652212 -0.1350381
-0.4907069 0.8617454 -0.1288473
-0.4984906 0.858171 -0.1226768
-0.5062138 0.8544992 -0.1165276
-0.513876 0.8507309 -0.1104005
-0.521477 0.8468672 -0.1042964
-0.5290162 0.8429089 -0.09821618
-0.5364933 0.8388572 -0.09216065
-0.5439079 0.8347129 -0.08613067
-0.5512597 0.8304772 -0.08012706
-0.5585482 0.8261511 -0.07415066
-0.5657732 0.8217354 -0.06820225
-0.5729344 0.8172313 -0.06228265
-0.5800314 0.8126398 -0.05639264
-0.587064 0.8079618 -0.05053299
-0.5940319 0.8031984 -0.04470447
-0.6009348 0.7983505 -0.03890783
-0.6077725 0.7934192 -0.03314381
-0.6145447 0.7884055 -0.02741315
-0.6212513 0.7833104 -0.02171657
-0.627892 0.7781349 -0.01605478
-0.6344666 0.7728799 -0.01042847
-0.640975 0.7675465 -0.004838341
-0.6474169 0.7621357 0.0007149303
-0.6537922 0.7566485 0.006230676
-0.6601007 0.7510858 0.01170824
-0.6663424 0.7454487 0.01714697
-0.6725171 0.7397381 0.02254622
-0.6786246 0.733955 0.02790539
-0.6846649 0.7281004 0.03322383
-0.6906378 0.7221753 0.03850095
-0.6965433 0.7161806 0.04373616
-0.7023813 0.7101173 0.04892886
-0.7081516 0.7039863 0.05407847
-0.7138544 0.6977887 0.05918443
-0.7194894 0.6915254 0.06424617
-0.7250567 0.6851973 0.06926316
-0.7305562 0.6788054 0.07423485
-0.7359879 0.6723506 0.07916072
-0.7413518 0.6658339 0.08404023
-0.7466478 0.6592562 0.08887288
-0.7518759 0.6526183 0.09365818
-0.7570362 0.6459214 0.09839562
-0.7621287 0.6391662 0.1030847
-0.7671533 0.6323537 0.107725
-0.7721101 0.6254848 0.112316
-0.776999 0.6185603 0.1168573
-0.7818202 0.6115813 0.1213484
-0.7865737 0.6045486 0.1257889
-0.7912595 0.597463 0.1301783
-0.7958776 0.5903255 0.1345162
-0.8004282 0.5831369 0.1388023
-0.8049112 0.5758982 0.143036
-0.8093267 0.5686101 0.1472171
-0.8136748 0.5612736 0.1513451
-0.8179555 0.5538894 0.1554196
-0.822169 0.5464586 0.1594403
-0.8263152 0.5389818 0.1634067
-0.8303943 0.53146 0.1673186
-0.8344064 0.5238939 0.1711756
-0.8383515 0.5162845 0.1749773
-0.8422298 0.5086325 0.1787234
-0.8460412 0.5009387 0.1824136
-0.8497859 0.493204 0.1860475
-0.853464 0.4854292 0.1896249
-0.8570757 0.4776151 0.1931454
-0.8606209 0.4697624 0.1966087
-0.8640997 0.4618721 0.2000146
-0.8675124 0.4539448 0.2033627
-0.8708589 0.4459813 0.2066528
-0.8741395 0.4379824 0.2098846
-0.8773541 0.429949 0.2130578
-0.8805029 0.4218817 0.2161722
-0.883586 0.4137814 0.2192276
-0.8866035 0.4056487 0.2222235
-0.8895555 0.3974845 0.22516
-0.8924422 0.3892895 0.2280366
-0.8952635 0.3810644 0.2308532
-0.8980197 0.37281 0.2336095
-0.9007108 0.364527 0.2363054
-0.9033369 0.3562161 0.2389405
-0.9058981 0.3478781 0.2415148
-0.9083946 0.3395137 0.2440281
-0.9108264 0.3311236 0.24648
-0.9131937 0.3227086 0.2488705
-0.9154965 0.3142692 0.2511993
-0.9177349 0.3058063 0.2534663
-0.919909 0.2973205 0.2556714
-0.922019 0.2888126 0.2578142
-0.9240649 0.2802832 0.2598948
-0.9260469 0.271733 0.2619129
-0.9279649 0.2631628 0.2638684
-0.9298191 0.2545731 0.2657611
-0.9316096 0.2459647 0.2675909
-0.9333365 0.2373382 0.2693577
-0.9349998 0.2286943 0.2710614
-0.9365997 0.2200338 0.2727017
-0.9381361 0.2113572 0.2742787
-0.9396092 0.2026652 0.2757921
-0.9410191 0.1939585 0.2772419
-0.9423658 0.1852378 0.278628
-0.9436495 0.1765036 0.2799503
-0.94487 0.1677567 0.2812087
-0.9460276 0.1589977 0.282403
-0.9471223 0.1502273 0.2835333
-0.9481541 0.1414461 0.2845994
-0.9491231 0.1326547 0.2856013
-0.9500293 0.1238538 0.2865388
-0.9508729 0.115044 0.287412
-0.9516537 0.1062261 0.2882208
-0.952372 0.09740049 0.288965
-0.9530276 0.08856798 0.2896447
-0.9536207 0.07972915 0.2902598
-0.9541513 0.07088464 0.2908103
-0.9546194 0.06203508 0.2912961
-0.9550251 0.05318112 0.2917172
-0.9553683 0.04432337 0.2920735
-0.955649 0.03546247 0.2923651
-0.9558674 0.02659906 0.2925919
-0.9560233 0.01773375 0.292754
-0.9561169 0.008867192 0.2928512
-0.9561481 1.779132e-14 0.2928836
-0.9561169 -0.008867192 0.2928512
-0.9560233 -0.01773375 0.292754
-0.9558674 -0.02659906 0.2925919
-0.955649 -0.03546247 0.2923651
-0.9553683 -0.04432337 0.2920735
-0.9550251 -0.05318112 0.2917172
-0.9546194 -0.06203508 0.2912961
-0.9541513 -0.07088464 0.2908103
-0.9536207 -0.07972915 0.2902598
-0.9530276 -0.08856798 0.2896447
-0.952372 -0.09740049 0.288965
-0.9516537 -0.1062261 0.2882208
-0.9508729 -0.115044 0.287412
-0.9500293 -0.1238538 0.2865388
-0.9491231 -0.1326547 0.2856013
-0.9481541 -0.1414461 0.2845994
-0.9471223 -0.1502273 0.2835333
-0.9460276 -0.1589977 0.282403
-0.94487 -0.1677567 0.2812087
-0.9436495 -0.1765036 0.2799503
-0.9423658 -0.1852378 0.278628
-0.9410191 -0.1939585 0.2772419
-0.9396092 -0.2026652 0.2757921
-0.9381361 -0.2113572 0.2742787
-0.9365997 -0.2200338 0.2727017
-0.9349998 -0.2286943 0.2710614
-0.9333365 -0.2373382 0.2693577
-0.9316096 -0.2459647 0.2675909
-0.9298191 -0.2545731 0.2657611
-0.9279649 -0.2631628 0.2638684
-0.9260469 -0.271733 0.2619129
-0.9240649 -0.2802832 0.2598948
-0.922019 -0.2888126 0.2578142
-0.919909 -0.2973205 0.2556714
-0.9177349 -0.3058063 0.2534663
-0.9154965 -0.3142692 0.2511993
-0.9131937 -0.3227086 0.2488705
-0.9108264 -0.3311236 0.24648
-0.9083946 -0.3395137 0.2440281
-0.9058981 -0.3478781 0.2415148