# vtk DataFile Version 2.0
Written badly by Kevin Korner
ASCII
DATASET POLYDATA
POINTS 350 FLOAT
0 0 0
0.00286533 0 0
0.005729657 1.939475e-05 -7.326561e-05
0.008591223 5.516512e-05 -0.0002156497
0.01144862 0.0001045303 -0.0004229369
0.01430076 0.0001649479 -0.00069084
0.01714685 0.0002341128 -0.001014989
0.0199864 0.0003099563 -0.001390904
0.02281918 0.0003906461 -0.001813961
0.02564522 0.0004745896 -0.002279313
0.02846484 0.0005604403 -0.002781786
0.03127866 0.0006471157 -0.003315658
0.03408768 0.0007338345 -0.003874225
0.03689351 0.000820216 -0.004448677
0.03969896 0.0009065882 -0.005024926
0.04250704 0.0009940204 -0.005588137
0.04531927 0.001083672 -0.006129815
0.04813651 0.00117678 -0.006644229
0.05095918 0.001274666 -0.007126998
0.05378742 0.001378735 -0.007574562
0.05662115 0.001490462 -0.007983935
0.0594601 0.001611381 -0.008352567
0.06230381 0.001743077 -0.008678265
0.0651517 0.001887172 -0.008959137
0.06800304 0.002045319 -0.009193562
0.07085699 0.002219187 -0.009380157
0.07371262 0.002410456 -0.009517766
0.07656887 0.002620806 -0.009605438
0.07942463 0.002851908 -0.009642421
0.08227868 0.003105416 -0.009628151
0.08512978 0.003382958 -0.00956224
0.08797659 0.003686129 -0.009444473
0.09081775 0.004016486 -0.009274798
0.09365185 0.004375536 -0.009053322
0.09647747 0.004764734 -0.0087803
0.09929314 0.005185477 -0.008456129
0.1020974 0.005639096 -0.008081345
0.1048888 0.006126854 -0.007656612
0.1076658 0.006649939 -0.007182715
0.110427 0.007209466 -0.006660554
0.113171 0.007806467 -0.006091135
0.1158964 0.008441893 -0.005475566
0.1186016 0.009116611 -0.004815041
0.1212855 0.009831403 -0.004110843
0.1239467 0.01058696 -0.003364328
0.126584 0.0113839 -0.002576918
0.129196 0.01222274 -0.001750098
0.1317817 0.01310392 -0.0008854024
0.13434 0.01402779 1.558856e-05
0.1368698 0.01499463 0.0009512583
0.1393701 0.01600461 0.001919961
0.1418401 0.01705786 0.002920027
0.1442788 0.01815441 0.003949773
0.1466855 0.01929421 0.005007504
0.1490594 0.02047716 0.006091524
0.1514 0.02170309 0.007200139
0.1537066 0.02297176 0.008331662
0.1559786 0.02428286 0.009484421
0.1582157 0.02563604 0.01065676
0.1604175 0.02703089 0.01184705
0.1625836 0.02846696 0.01305369
0.1647137 0.02994374 0.01427509
0.1668076 0.03146069 0.01550973
0.1688653 0.03301723 0.01675608
0.1708865 0.03461274 0.01801269
0.1728713 0.03624658 0.01927813
0.1748196 0.03791807 0.02055102
0.1767316 0.03962651 0.02183002
0.1786072 0.04137119 0.02311383
0.1804467 0.04315137 0.02440121
0.1822502 0.0449663 0.02569097
0.184018 0.04681522 0.02698194
0.1857502 0.04869736 0.02827304
0.1874473 0.05061194 0.0295632
0.1891094 0.05255818 0.03085142
0.190737 0.05453529 0.03213674
0.1923305 0.05654249 0.03341824
0.1938901 0.058579 0.03469506
0.1954164 0.06064404 0.03596639
0.1969097 0.06273683 0.03723143
0.1983705 0.06485661 0.03848947
0.1997993 0.06700262 0.0397398
0.2011965 0.0691741 0.04098179
0.2025627 0.07137033 0.04221482
0.2038982 0.07359056 0.04343832
0.2052037 0.07583409 0.04465175
0.2064796 0.0781002 0.04585463
0.2077264 0.08038821 0.04704649
0.2089447 0.08269743 0.0482269
0.210135 0.08502721 0.04939546
0.2112977 0.0873769 0.05055181
0.2124334 0.08974586 0.05169561
0.2135427 0.09213346 0.05282655
0.2146259 0.09453912 0.05394434
0.2156837 0.09696224 0.05504874
0.2167166 0.09940224 0.0561395
0.2177249 0.1018586 0.05721642
0.2187093 0.1043307 0.0582793
0.2196702 0.1068181 0.05932799
0.2206081 0.1093202 0.06036231
0.2215235 0.1118366 0.06138216
0.2224168 0.1143667 0.0623874
0.2232886 0.1169101 0.06337795
0.2241391 0.1194664 0.06435371
0.224969 0.1220351 0.06531462
0.2257786 0.1246157 0.06626062
0.2265684 0.1272079 0.06719166
0.2273387 0.1298113 0.06810772
0.2280901 0.1324254 0.06900877
0.2288228 0.13505 0.0698948
0.2295373 0.1376845 0.07076579
0.2302339 0.1403288 0.07162177
0.2309131 0.1429824 0.07246273
0.2315752 0.145645 0.0732887
0.2322205 0.1483163 0.0740997
0.2328494 0.150996 0.07489576
0.2334623 0.1536839 0.07567693
0.2340594 0.1563795 0.07644324
0.234641 0.1590826 0.07719474
0.2352076 0.161793 0.07793147
0.2357594 0.1645105 0.0786535
0.2362966 0.1672346 0.07936087
0.2368196 0.1699653 0.08005364
0.2373286 0.1727023 0.08073188
0.2378239 0.1754453 0.08139565
0.2383058 0.1781942 0.08204502
0.2387745 0.1809487 0.08268004
0.2392302 0.1837086 0.0833008
0.2396733 0.1864737 0.08390734
0.2401039 0.1892438 0.08449975
0.2405222 0.1920188 0.0850781
0.2409284 0.1947985 0.08564244
0.2413228 0.1975827 0.08619285
0.2417056 0.2003712 0.08672941
0.2420769 0.2031638 0.08725217
0.242437 0.2059605 0.08776121
0.2427859 0.208761 0.08825659
0.243124 0.2115653 0.08873838
0.2434513 0.2143731 0.08920665
0.243768 0.2171843 0.08966145
0.2440743 0.2199988 0.09010286
0.2443703 0.2228165 0.09053093
0.2446562 0.2256372 0.09094573
0.2449321 0.2284608 0.09134732
0.2451981 0.2312871 0.09173575
0.2454543 0.2341162 0.09211108
0.2457009 0.2369478 0.09247337
0.245938 0.2397819 0.09282267
0.2461657 0.2426183 0.09315902
0.2463842 0.2454569 0.09348249
0.2465934 0.2482976 0.09379312
0.2467935 0.2511404 0.09409096
0.2469847 0.2539851 0.09437604
0.2471669 0.2568316 0.09464842
0.2473403 0.2596799 0.09490814
0.2475049 0.2625298 0.09515523
0.2476609 0.2653813 0.09538973
0.2478083 0.2682342 0.09561169
0.2479471 0.2710885 0.09582112
0.2480774 0.273944 0.09601807
0.2481993 0.2768008 0.09620256
0.2483129 0.2796587 0.09637463
0.2484181 0.2825177 0.0965343
0.248515 0.2853776 0.09668159
0.2486038 0.2882383 0.09681652
0.2486843 0.2910999 0.09693913
0.2487567 0.2939622 0.09704942
0.248821 0.2968251 0.09714741
0.2488771 0.2996886 0.09723312
0.2489252 0.3025526 0.09730656
0.2489653 0.305417 0.09736775
0.2489973 0.3082818 0.09741668
0.2490213 0.3111467 0.09745338
0.2490373 0.3140119 0.09747784
0.2490453 0.3168772 0.09749007
0.2490453 0.3197426 0.09749007
0.2490373 0.3226078 0.09747784
0.2490213 0.325473 0.09745338
0.2489973 0.328338 0.09741668
0.2489653 0.3312028 0.09736775
0.2489252 0.3340671 0.09730656
0.2488771 0.3369311 0.09723312
0.248821 0.3397946 0.09714741
0.2487567 0.3426576 0.09704942
0.2486843 0.3455199 0.09693913
0.2486038 0.3483814 0.09681652
0.248515 0.3512422 0.09668159
0.2484181 0.3541021 0.0965343
0.2483129 0.356961 0.09637463
0.2481993 0.3598189 0.09620256
0.2480774 0.3626757 0.09601807
0.2479471 0.3655313 0.09582112
0.2478083 0.3683856 0.09561169
0.2476609 0.3712385 0.09538973
0.2475049 0.37409 0.09515523
0.2473403 0.3769399 0.09490814
0.2471669 0.3797881 0.09464842
0.2469847 0.3826347 0.09437604
0.2467935 0.3854794 0.09409096
0.2465934 0.3883221 0.09379312
0.2463842 0.3911629 0.09348249
0.2461657 0.3940015 0.09315902
0.245938 0.3968379 0.09282267
0.2457009 0.399672 0.09247337
0.2454543 0.4025036 0.09211108
0.2451981 0.4053326 0.09173575
0.2449321 0.408159 0.09134732
0.2446562 0.4109826 0.09094573
0.2443703 0.4138033 0.09053093
0.2440743 0.416621 0.09010286
0.243768 0.4194355 0.08966145
0.2434513 0.4222467 0.08920665
0.243124 0.4250545 0.08873838
0.2427859 0.4278587 0.08825659
0.242437 0.4306593 0.08776121
0.2420769 0.4334559 0.08725217
0.2417056 0.4362486 0.08672941
0.2413228 0.4390371 0.08619285
0.2409284 0.4418213 0.08564244
0.2405222 0.4446009 0.0850781
0.2401039 0.4473759 0.08449975
0.2396733 0.4501461 0.08390734
0.2392302 0.4529112 0.0833008
0.2387745 0.4556711 0.08268004
0.2383058 0.4584256 0.08204502
0.2378239 0.4611745 0.08139565
0.2373286 0.4639175 0.08073188
0.2368196 0.4666545 0.08005364
0.2362966 0.4693851 0.07936087
0.2357594 0.4721093 0.0786535
0.2352076 0.4748267 0.07793147
0.234641 0.4775372 0.07719474
0.2340594 0.4802403 0.07644324
0.2334623 0.4829359 0.07567693
0.2328494 0.4856237 0.07489576
0.2322205 0.4883034 0.0740997
0.2315752 0.4909748 0.0732887
0.2309131 0.4936374 0.07246273
0.2302339 0.496291 0.07162177
0.2295373 0.4989352 0.07076579
0.2288228 0.5015698 0.0698948
0.2280901 0.5041943 0.06900877
0.2273387 0.5068085 0.06810772
0.2265684 0.5094119 0.06719166
0.2257786 0.5120041 0.06626062
0.224969 0.5145847 0.06531462
0.2241391 0.5171534 0.06435371
0.2232886 0.5197097 0.06337795
0.2224168 0.5222531 0.0623874
0.2215235 0.5247832 0.06138216
0.2206081 0.5272996 0.06036231
0.2196702 0.5298017 0.05932799
0.2187093 0.5322891 0.0582793
0.2177249 0.5347612 0.05721642
0.2167166 0.5372175 0.0561395
0.2156837 0.5396575 0.05504874
0.2146259 0.5420807 0.05394434
0.2135427 0.5444863 0.05282655
0.2124334 0.5468739 0.05169561
0.2112977 0.5492429 0.05055181
0.210135 0.5515926 0.04939546
0.2089447 0.5539223 0.0482269
0.2077264 0.5562316 0.04704649
0.2064796 0.5585196 0.04585463
0.2052037 0.5607857 0.04465175
0.2038982 0.5630292 0.04343832
0.2025627 0.5652494 0.04221482
0.2011965 0.5674457 0.04098179
0.1997993 0.5696172 0.0397398
0.1983705 0.5717632 0.03848947
0.1969097 0.5738829 0.03723143
0.1954164 0.5759757 0.03596639
0.1938901 0.5780408 0.03469506
0.1923305 0.5800773 0.03341824
0.190737 0.5820845 0.03213674
0.1891094 0.5840616 0.03085142
0.1874473 0.5860078 0.0295632
0.1857502 0.5879224 0.02827304
0.184018 0.5898046 0.02698194
0.1822502 0.5916535 0.02569097
0.1804467 0.5934684 0.02440121
0.1786072 0.5952486 0.02311383
0.1767316 0.5969933 0.02183002
0.1748196 0.5987017 0.02055102
0.1728713 0.6003732 0.01927813
0.1708865 0.602007 0.01801269
0.1688653 0.6036025 0.01675608
0.1668076 0.6051591 0.01550973
0.1647137 0.606676 0.01427509
0.1625836 0.6081528 0.01305369
0.1604175 0.6095889 0.01184705
0.1582157 0.6109837 0.01065676
0.1559786 0.6123369 0.009484421
0.1537066 0.613648 0.008331662
0.1514 0.6149167 0.007200139
0.1490594 0.6161426 0.006091524
0.1466855 0.6173256 0.005007504
0.1442788 0.6184654 0.003949773
0.1418401 0.6195619 0.002920027
0.1393701 0.6206152 0.001919961
0.1368698 0.6216251 0.0009512583
0.13434 0.622592 1.558857e-05
0.1317817 0.6235158 -0.0008854024
0.129196 0.624397 -0.001750098
0.126584 0.6252359 -0.002576918
0.1239467 0.6260328 -0.003364328
0.1212855 0.6267884 -0.004110843
0.1186016 0.6275032 -0.004815041
0.1158964 0.6281779 -0.005475565
0.113171 0.6288133 -0.006091135
0.110427 0.6294103 -0.006660554
0.1076658 0.6299698 -0.007182715
0.1048888 0.6304929 -0.007656612
0.1020974 0.6309807 -0.008081345
0.09929314 0.6314343 -0.008456129
0.09647747 0.631855 -0.0087803
0.09365185 0.6322442 -0.009053322
0.09081775 0.6326033 -0.009274798
0.08797659 0.6329336 -0.009444473
0.08512978 0.6332368 -0.00956224
0.08227868 0.6335144 -0.009628151
0.07942463 0.6337679 -0.009642421
0.07656887 0.633999 -0.009605438
0.07371262 0.6342093 -0.009517766
0.07085699 0.6344006 -0.009380157
0.06800304 0.6345745 -0.009193562
0.0651517 0.6347326 -0.008959137
0.06230381 0.6348767 -0.008678265
0.0594601 0.6350084 -0.008352567
0.05662115 0.6351293 -0.007983935
0.05378742 0.635241 -0.007574562
0.05095918 0.6353451 -0.007126998
0.04813651 0.635443 -0.006644229
0.04531927 0.6355361 -0.006129815
0.04250704 0.6356258 -0.005588137
0.03969896 0.6357132 -0.005024926
0.03689351 0.6357996 -0.004448677
0.03408768 0.6358859 -0.003874225
0.03127866 0.6359727 -0.003315658
0.02846484 0.6360593 -0.002781786
0.02564522 0.6361452 -0.002279313
0.02281918 0.6362291 -0.001813961
0.0199864 0.6363098 -0.001390904
0.01714685 0.6363857 -0.001014989
0.01430076 0.6364548 -0.00069084
0.01144862 0.6365152 -0.0004229369
0.008591223 0.6365646 -0.0002156497
0.005729657 0.6366004 -7.326561e-05
0.00286533 0.6366198 0
0 0.6366198 0

LINES 349 1047
2 0 1
2 1 2
2 2 3
2 3 4
2 4 5
2 5 6
2 6 7
2 7 8
2 8 9
2 9 10
2 10 11
2 11 12
2 12 13
2 13 14
2 14 15
2 15 16
2 16 17
2 17 18
2 18 19
2 19 20
2 20 21
2 21 22
2 22 23
2 23 24
2 24 25
2 25 26
2 26 27
2 27 28
2 28 29
2 29 30
2 30 31
2 31 32
2 32 33
2 33 34
2 34 35
2 35 36
2 36 37
2 37 38
2 38 39
2 39 40
2 40 41
2 41 42
2 42 43
2 43 44
2 44 45
2 45 46
2 46 47
2 47 48
2 48 49
2 49 50
2 50 51
2 51 52
2 52 53
2 53 54
2 54 55
2 55 56
2 56 57
2 57 58
2 58 59
2 59 60
2 60 61
2 61 62
2 62 63
2 63 64
2 64 65
2 65 66
2 66 67
2 67 68
2 68 69
2 69 70
2 70 71
2 71 72
2 72 73
2 73 74
2 74 75
2 75 76
2 76 77
2 77 78
2 78 79
2 79 80
2 80 81
2 81 82
2 82 83
2 83 84
2 84 85
2 85 86
2 86 87
2 87 88
2 88 89
2 89 90
2 90 91
2 91 92
2 92 93
2 93 94
2 94 95
2 95 96
2 96 97
2 97 98
2 98 99
2 99 100
2 100 101
2 101 102
2 102 103
2 103 104
2 104 105
2 105 106
2 106 107
2 107 108
2 108 109
2 109 110
2 110 111
2 111 112
2 112 113
2 113 114
2 114 115
2 115 116
2 116 117
2 117 118
2 118 119
2 119 120
2 120 121
2 121 122
2 122 123
2 123 124
2 124 125
2 125 126
2 126 127
2 127 128
2 128 129
2 129 130
2 130 131
2 131 132
2 132 133
2 133 134
2 134 135
2 135 136
2 136 137
2 137 138
2 138 139
2 139 140
2 140 141
2 141 142
2 142 143
2 143 144
2 144 145
2 145 146
2 146 147
2 147 148
2 148 149
2 149 150
2 150 151
2 151 152
2 152 153
2 153 154
2 154 155
2 155 156
2 156 157
2 157 158
2 158 159
2 159 160
2 160 161
2 161 162
2 162 163
2 163 164
2 164 165
2 165 166
2 166 167
2 167 168
2 168 169
2 169 170
2 170 171
2 171 172
2 172 173
2 173 174
2 174 175
2 175 176
2 176 177
2 177 178
2 178 179
2 179 180
2 180 181
2 181 182
2 182 183
2 183 184
2 184 185
2 185 186
2 186 187
2 187 188
2 188 189
2 189 190
2 190 191
2 191 192
2 192 193
2 193 194
2 194 195
2 195 196
2 196 197
2 197 198
2 198 199
2 199 200
2 200 201
2 201 202
2 202 203
2 203 204
2 204 205
2 205 206
2 206 207
2 207 208
2 208 209
2 209 210
2 210 211
2 211 212
2 212 213
2 213 214
2 214 215
2 215 216
2 216 217
2 217 218
2 218 219
2 219 220
2 220 221
2 221 222
2 222 223
2 223 224
2 224 225
2 225 226
2 226 227
2 227 228
2 228 229
2 229 230
2 230 231
2 231 232
2 232 233
2 233 234
2 234 235
2 235 236
2 236 237
2 237 238
2 238 239
2 239 240
2 240 241
2 241 242
2 242 243
2 243 244
2 244 245
2 245 246
2 246 247
2 247 248
2 248 249
2 249 250
2 250 251
2 251 252
2 252 253
2 253 254
2 254 255
2 255 256
2 256 257
2 257 258
2 258 259
2 259 260
2 260 261
2 261 262
2 262 263
2 263 264
2 264 265
2 265 266
2 266 267
2 267 268
2 268 269
2 269 270
2 270 271
2 271 272
2 272 273
2 273 274
2 274 275
2 275 276
2 276 277
2 277 278
2 278 279
2 279 280
2 280 281
2 281 282
2 282 283
2 283 284
2 284 285
2 285 286
2 286 287
2 287 288
2 288 289
2 289 290
2 290 291
2 291 292
2 292 293
2 293 294
2 294 295
2 295 296
2 296 297
2 297 298
2 298 299
2 299 300
2 300 301
2 301 302
2 302 303
2 303 304
2 304 305
2 305 306
2 306 307
2 307 308
2 308 309
2 309 310
2 310 311
2 311 312
2 312 313
2 313 314
2 314 315
2 315 316
2 316 317
2 317 318
2 318 319
2 319 320
2 320 321
2 321 322
2 322 323
2 323 324
2 324 325
2 325 326
2 326 327
2 327 328
2 328 329
2 329 330
2 330 331
2 331 332
2 332 333
2 333 334
2 334 335
2 335 336
2 336 337
2 337 338
2 338 339
2 339 340
2 340 341
2 341 342
2 342 343
2 343 344
2 344 345
2 345 346
2 346 347
2 347 348
2 348 349


POINT_DATA 350
SCALARS a FLOAT 1
LOOKUP_TABLE default
0.0005894628
0.0005894628
0.0005894628
0.0005894628
0.0005894628
0.0005894628
0.0005894628
0.0005894628
0.0005894628
0.0005894628
0.0005894628
0.0005894628
0.0005894628
0.0005894628
0.0005894628
0.0005894628
0.0005894628
0.0005894628
0.0005894628
0.0005894628
0.0005894628
0.0005894628
0.0005894628
0.0005894628
0.0005894628
0.0005894628
0.0005894628
0.0005894628
0.0005894628
0.0005894628
0.0005894628
0.0005894628
0.0005894628
0.0005894628
0.0005894628
0.0005894628
0.0005894628
0.0005894628
0.0005894628
0.0005894628
0.0005894628
0.0005894628
0.0005894628
0.0005894628
0.0005894628
0.0005894628
0.0005894628
0.0005894628
0.0005894628
0.0005894628
0.0005894628
0.0005894628
0.0005894628
0.0005894628
0.0005894628
0.0005894628
0.0005894628
0.0005894628
0.0005894628
0.0005894628
0.0005894628
0.0005894628
0.0005894628
0.0005894628
0.0005894628
0.0005894628
0.0005894628
0.0005894628
0.0005894628
0.0005894628
0.0005894628
0.0005894628
0.0005894628
0.0005894628
0.0005894628
0.0005894628
0.0005894628
0.0005894628
0.0005894628
0.0005894628
0.0005894628
0.0005894628
0.0005894628
0.0005894628
0.0005894628
0.0005894628
0.0005894628
0.0005894628
0.0005894628
0.0005894628
0.0005894628
0.0005894628
0.0005894628
0.0005894628
0.0005894628
0.0005894628
0.0005894628
0.0005894628
0.0005894628
0.0005894628
0.0005894628
0.0005894628
0.0005894628
0.0005894628
0.0005894628
0.0005894628
0.0005894628
0.0005894628
0.0005894628
0.0005894628
0.0005894628
0.0005894628
0.0005894628
0.0005894628
0.0005894628
0.0005894628
0.0005894628
0.0005894628
0.0005894628
0.0005894628
0.0005894628
0.0005894628
0.0005894628
0.0005894628
0.0005894628
0.0005894628
0.0005894628
0.0005894628
0.0005894628
0.0005894628
0.0005894628
0.0005894628
0.0005894628
0.0005894628
0.0005894628
0.0005894628
0.0005894628
0.0005894628
0.0005894628
0.0005894628
0.0005894628
0.0005894628
0.0005894628
0.0005894628
0.0005894628
0.0005894628
0.0005894628
0.0005894628
0.0005894628
0.0005894628
0.0005894628
0.0005894628
0.0005894628
0.0005894628
0.0005894628
0.0005894628
0.0005894628
0.0005894628
0.0005894628
0.0005894628
0.0005894628
0.0005894628
0.0005894628
0.0005894628
0.0005894628
0.0005894628
0.0005894628
0.0005894628
0.0005894628
0.0005894628
0.0005894628
0.0005894628
0.0005894628
0.0005894628
0.0005894628
0.0005894628
0.0005894628
0.0005894628
0.0005894628
0.0005894628
0.0005894628
0.0005894628
0.0005894628
0.0005894628
0.0005894628
0.0005894628
0.0005894628
0.0005894628
0.0005894628
0.0005894628
0.0005894628
0.0005894628
0.0005894628
0.0005894628
0.0005894628
0.0005894628
0.0005894628
0.0005894628
0.0005894628
0.0005894628
0.0005894628
0.0005894628
0.0005894628
0.0005894628
0.0005894628
0.0005894628
0.0005894628
0.0005894628
0.0005894628
0.0005894628
0.0005894628
0.0005894628
0.0005894628
0.0005894628
0.0005894628
0.0005894628
0.0005894628
0.0005894628
0.0005894628
0.0005894628
0.0005894628
0.0005894628
0.0005894628
0.0005894628
0.0005894628
0.0005894628
0.0005894628
0.0005894628
0.0005894628
0.0005894628
0.0005894628
0.0005894628
0.0005894628
0.0005894628
0.0005894628
0.0005894628
0.0005894628
0.0005894628
0.0005894628
0.0005894628
0.0005894628
0.0005894628
0.0005894628
0.0005894628
0.0005894628
0.0005894628
0.0005894628
0.0005894628
0.0005894628
0.0005894628
0.0005894628
0.0005894628
0.0005894628
0.0005894628
0.0005894628
0.0005894628
0.0005894628
0.0005894628
0.0005894628
0.0005894628
0.0005894628
0.0005894628
0.0005894628
0.0005894628
0.0005894628
0.0005894628
0.0005894628
0.0005894628
0.0005894628
0.0005894628
0.0005894628
0.0005894628
0.0005894628
0.0005894628
0.0005894628
0.0005894628
0.0005894628
0.0005894628
0.0005894628
0.0005894628
0.0005894628
0.0005894628
0.0005894628
0.0005894628
0.0005894628
0.0005894628
0.0005894628
0.0005894628
0.0005894628
0.0005894628
0.0005894628
0.0005894628
0.0005894628
0.0005894628
0.0005894628
0.0005894628
0.0005894628
0.0005894628
0.0005894628
0.0005894628
0.0005894628
0.0005894628
0.0005894628
0.0005894628
0.0005894628
0.0005894628
0.0005894628
0.0005894628
0.0005894628
0.0005894628
0.0005894628
0.0005894628
0.0005894628
0.0005894628
0.0005894628
0.0005894628
0.0005894628
0.0005894628
0.0005894628
0.0005894628
0.0005894628
0.0005894628
0.0005894628
0.0005894628
0.0005894628
0.0005894628
0.0005894628
0.0005894628
0.0005894628
0.0005894628
0.0005894628
0.0005894628
0.0005894628
0.0005894628
0.0005894628
0.0005894628
0.0005894628
0.0005894628
0.0005894628
0.0005894628
0.0005894628
0.0005894628
0.0005894628
0.0005894628
0.0005894628
0.0005894628
0.0005894628
0.0005894628
0.0005894628
0.0005894628


SCALARS b FLOAT 1
LOOKUP_TABLE default
0.02357851
0.02357851
0.02357851
0.02357851
0.02357851
0.02357851
0.02357851
0.02357851
0.02357851
0.02357851
0.02357851
0.02357851
0.02357851
0.02357851
0.02357851
0.02357851
0.02357851
0.02357851
0.02357851
0.02357851
0.02357851
0.02357851
0.02357851
0.02357851
0.02357851
0.02357851
0.02357851
0.02357851
0.02357851
0.02357851
0.02357851
0.02357851
0.02357851
0.02357851
0.02357851
0.02357851
0.02357851
0.02357851
0.02357851
0.02357851
0.02357851
0.02357851
0.02357851
0.02357851
0.02357851
0.02357851
0.02357851
0.02357851
0.02357851
0.02357851
0.02357851
0.02357851
0.02357851
0.02357851
0.02357851
0.02357851
0.02357851
0.02357851
0.02357851
0.02357851
0.02357851
0.02357851
0.02357851
0.02357851
0.02357851
0.02357851
0.02357851
0.02357851
0.02357851
0.02357851
0.02357851
0.02357851
0.02357851
0.02357851
0.02357851
0.02357851
0.02357851
0.02357851
0.02357851
0.02357851
0.02357851
0.02357851
0.02357851
0.02357851
0.02357851
0.02357851
0.02357851
0.02357851
0.02357851
0.02357851
0.02357851
0.02357851
0.02357851
0.02357851
0.02357851
0.02357851
0.02357851
0.02357851
0.02357851
0.02357851
0.02357851
0.02357851
0.02357851
0.02357851
0.02357851
0.02357851
0.02357851
0.02357851
0.02357851
0.02357851
0.02357851
0.02357851
0.02357851
0.02357851
0.02357851
0.02357851
0.02357851
0.02357851
0.02357851
0.02357851
0.02357851
0.02357851
0.02357851
0.02357851
0.02357851
0.02357851
0.02357851
0.02357851
0.02357851
0.02357851
0.02357851
0.02357851
0.02357851
0.02357851
0.02357851
0.02357851
0.02357851
0.02357851
0.02357851
0.02357851
0.02357851
0.02357851
0.02357851
0.02357851
0.02357851
0.02357851
0.02357851
0.02357851
0.02357851
0.02357851
0.02357851
0.02357851
0.02357851
0.02357851
0.02357851
0.02357851
0.02357851
0.02357851
0.02357851
0.02357851
0.02357851
0.02357851
0.02357851
0.02357851
0.02357851
0.02357851
0.02357851
0.02357851
0.02357851
0.02357851
0.02357851
0.02357851
0.02357851
0.02357851
0.02357851
0.02357851
0.02357851
0.02357851
0.02357851
0.02357851
0.02357851
0.02357851
0.02357851
0.02357851
0.02357851
0.02357851
0.02357851
0.02357851
0.02357851
0.02357851
0.02357851
0.02357851
0.02357851
0.02357851
0.02357851
0.02357851
0.02357851
0.02357851
0.02357851
0.02357851
0.02357851
0.02357851
0.02357851
0.02357851
0.02357851
0.02357851
0.02357851
0.02357851
0.02357851
0.02357851
0.02357851
0.02357851
0.02357851
0.02357851
0.02357851
0.02357851
0.02357851
0.02357851
0.02357851
0.02357851
0.02357851
0.02357851
0.02357851
0.02357851
0.02357851
0.02357851
0.02357851
0.02357851
0.02357851
0.02357851
0.02357851
0.02357851
0.02357851
0.02357851
0.02357851
0.02357851
0.02357851
0.02357851
0.02357851
0.02357851
0.02357851
0.02357851
0.02357851
0.02357851
0.02357851
0.02357851
0.02357851
0.02357851
0.02357851
0.02357851
0.02357851
0.02357851
0.02357851
0.02357851
0.02357851
0.02357851
0.02357851
0.02357851
0.02357851
0.02357851
0.02357851
0.02357851
0.02357851
0.02357851
0.02357851
0.02357851
0.02357851
0.02357851
0.02357851
0.02357851
0.02357851
0.02357851
0.02357851
0.02357851
0.02357851
0.02357851
0.02357851
0.02357851
0.02357851
0.02357851
0.02357851
0.02357851
0.02357851
0.02357851
0.02357851
0.02357851
0.02357851
0.02357851
0.02357851
0.02357851
0.02357851
0.02357851
0.02357851
0.02357851
0.02357851
0.02357851
0.02357851
0.02357851
0.02357851
0.02357851
0.02357851
0.02357851
0.02357851
0.02357851
0.02357851
0.02357851
0.02357851
0.02357851
0.02357851
0.02357851
0.02357851
0.02357851
0.02357851
0.02357851
0.02357851
0.02357851
0.02357851
0.02357851
0.02357851
0.02357851
0.02357851
0.02357851
0.02357851
0.02357851
0.02357851
0.02357851
0.02357851
0.02357851
0.02357851
0.02357851
0.02357851
0.02357851
0.02357851
0.02357851
0.02357851
0.02357851
0.02357851
0.02357851
0.02357851
0.02357851
0.02357851
0.02357851
0.02357851
0.02357851
0.02357851
0.02357851
0.02357851
0.02357851
0.02357851
0.02357851


VECTORS d1 FLOAT
0 -0.266902 0.9637237
0.02644754 -0.2414819 0.9700449
0.05121564 -0.2157623 0.9751018
0.07430041 -0.1898564 0.9789964
0.09569514 -0.1638641 0.9818304
0.1153871 -0.1378741 0.9837055
0.1333538 -0.1119656 0.9847235
0.1495569 -0.08620954 0.9849876
0.1639329 -0.06067108 0.984604
0.1763767 -0.03541143 0.9836856
0.1867083 -0.01049104 0.9823594
0.1945933 0.01402609 0.9807837
0.1993045 0.03806974 0.9791978
0.1989983 0.06165026 0.9780588
0.1933847 0.08523377 0.9774137
0.1846601 0.1089886 0.9767406
0.1737812 0.1328728 0.9757791
0.1612122 0.1568277 0.9743796
0.1472338 0.1807952 0.9724378
0.1320404 0.2047196 0.9698738
0.1157799 0.2285472 0.9666236
0.09857212 0.2522262 0.9626347
0.08051924 0.275706 0.9578637
0.06171158 0.2989376 0.9522752
0.04223123 0.3218734 0.9458404
0.02215441 0.3444672 0.9385369
0.001552939 0.3666743 0.9303481
-0.01950469 0.3884516 0.9212627
-0.04095268 0.4097578 0.9112746
-0.06272747 0.4305537 0.9003826
-0.08476744 0.450802 0.8885899
-0.1070128 0.4704676 0.8759044
-0.1294055 0.4895177 0.8623379
-0.1518891 0.5079222 0.8479061
-0.174409 0.5256532 0.8326285
-0.1969124 0.5426856 0.8165279
-0.2193483 0.5589972 0.7996302
-0.2416676 0.5745683 0.7819642
-0.2638234 0.5893821 0.7635614
-0.2857709 0.6034245 0.7444554
-0.3074673 0.6166845 0.7246821
-0.3288725 0.6291535 0.7042789
-0.3499485 0.640826 0.6832848
-0.3706597 0.6516988 0.6617401
-0.3909733 0.6617717 0.639686
-0.4108586 0.6710467 0.6171642
-0.4302878 0.6795282 0.594217
-0.4492355 0.6872232 0.5708868
-0.4676788 0.6941406 0.5472161
-0.4855973 0.7002913 0.5232469
-0.5029733 0.7056883 0.4990209
-0.5197913 0.7103461 0.4745792
-0.5360383 0.7142809 0.449962
-0.5517036 0.7175103 0.4252083
-0.5667786 0.7200533 0.4003564
-0.581257 0.7219299 0.3754432
-0.5951344 0.7231611 0.350504
-0.6084086 0.7237687 0.3255731
-0.621079 0.7237753 0.3006831
-0.6331467 0.7232039 0.2758648
-0.6446147 0.722078 0.2511478
-0.6554873 0.7204214 0.2265599
-0.6657703 0.718258 0.2021271
-0.6754706 0.7156119 0.177874
-0.6845964 0.712507 0.1538232
-0.6931571 0.708967 0.1299961
-0.7011628 0.7050157 0.106412
-0.7086247 0.7006763 0.08308891
-0.7155546 0.6959716 0.06004324
-0.7219649 0.6909241 0.03728983
-0.7278688 0.6855558 0.01484208
-0.7332798 0.679888 -0.007288031
-0.7382117 0.6739416 -0.02908987
-0.742679 0.6677366 -0.05055409
-0.746696 0.6612928 -0.07167262
-0.7502775 0.6546287 -0.09243851
-0.7534383 0.6477627 -0.112846
-0.7561932 0.6407121 -0.1328902
-0.7585572 0.6334936 -0.1525675
-0.7605451 0.6261231 -0.1718749
-0.7621717 0.618616 -0.1908105
-0.7634515 0.6109867 -0.209373
-0.7643991 0.6032491 -0.2275621
-0.7650289 0.5954163 -0.2453779
-0.7653548 0.5875006 -0.2628213
-0.7653908 0.5795139 -0.2798938
-0.7651504 0.5714672 -0.2965973
-0.7646471 0.563371 -0.3129344
-0.7638937 0.5552351 -0.3289078
-0.7629032 0.5470686 -0.3445209
-0.7616878 0.5388803 -0.3597774
-0.7602597 0.5306781 -0.3746812
-0.7586307 0.5224696 -0.3892364
-0.7568123 0.5142617 -0.4034477
-0.7548155 0.506061 -0.4173198
-0.7526512 0.4978735 -0.4308574
-0.7503299 0.4897047 -0.4440656
-0.7478617 0.4815598 -0.4569496
-0.7452564 0.4734435 -0.4695148
-0.7425236 0.46536 -0.4817663
-0.7396723 0.4573134 -0.4937098
-0.7367115 0.4493072 -0.5053506
-0.7336497 0.4413446 -0.5166944
-0.7304952 0.4334286 -0.5277465
-0.727256 0.4255619 -0.5385126
-0.7239397 0.4177467 -0.5489983
-0.7205537 0.4099851 -0.5592089
-0.7171052 0.402279 -0.5691501
-0.713601 0.3946299 -0.5788271
-0.7100477 0.3870392 -0.5882456
-0.7064518 0.3795082 -0.5974106
-0.7028192 0.3720376 -0.6063277
-0.6991558 0.3646284 -0.6150018
-0.6954674 0.3572811 -0.6234383
-0.6917593 0.3499961 -0.6316421
-0.6880368 0.3427738 -0.6396182
-0.6843048 0.3356144 -0.6473716
-0.6805682 0.3285178 -0.6549069
-0.6768315 0.3214839 -0.662229
-0.6730992 0.3145127 -0.6693424
-0.6693756 0.3076036 -0.6762517
-0.6656647 0.3007564 -0.6829612
-0.6619705 0.2939706 -0.6894754
-0.6582966 0.2872456 -0.6957985
-0.6546468 0.2805807 -0.7019345
-0.6510244 0.2739752 -0.7078876
-0.6474328 0.2674284 -0.7136616
-0.6438751 0.2609394 -0.7192604
-0.6403544 0.2545073 -0.7246878
-0.6368735 0.2481312 -0.7299473
-0.6334354 0.24181 -0.7350425
-0.6300426 0.2355429 -0.739977
-0.6266977 0.2293286 -0.7447539
-0.6234032 0.2231662 -0.7493766
-0.6201614 0.2170545 -0.7538482
-0.6169746 0.2109924 -0.7581718
-0.613845 0.2049787 -0.7623504
-0.6107745 0.1990122 -0.7663868
-0.6077652 0.1930916 -0.7702838
-0.6048189 0.1872159 -0.7740441
-0.6019376 0.1813837 -0.7776703
-0.5991228 0.1755939 -0.781165
-0.5963762 0.1698451 -0.7845305
-0.5936994 0.1641361 -0.7877692
-0.591094 0.1584657 -0.7908834
-0.5885613 0.1528325 -0.7938752
-0.5861027 0.1472353 -0.7967468
-0.5837195 0.1416729 -0.7995001
-0.581413 0.1361439 -0.802137
-0.5791843 0.130647 -0.8046595
-0.5770345 0.1251811 -0.8070693
-0.5749648 0.1197447 -0.809368
-0.5729762 0.1143368 -0.8115574
-0.5710695 0.1089559 -0.8136389
-0.5692457 0.1036008 -0.815614
-0.5675057 0.09827022 -0.8174841
-0.5658502 0.09296295 -0.8192505
-0.5642801 0.08767772 -0.8209145
-0.562796 0.08241326 -0.8224772
-0.5613985 0.07716833 -0.8239398
-0.5600884 0.07194167 -0.8253032
-0.5588662 0.06673207 -0.8265684
-0.5577325 0.06153826 -0.8277364
-0.5566876 0.05635903 -0.8288079
-0.5557321 0.05119314 -0.8297837
-0.5548664 0.04603937 -0.8306646
-0.5540909 0.0408965 -0.831451
-0.5534058 0.0357633 -0.8321436
-0.5528115 0.03063856 -0.8327429
-0.5523082 0.02552107 -0.8332493
-0.5518961 0.02040962 -0.8336631
-0.5515754 0.01530299 -0.8339846
-0.5513463 0.01019999 -0.8342141
-0.5512087 0.00509939 -0.8343518
-0.5511629 4.956707e-11 -0.8343977
-0.5512087 -0.00509939 -0.8343518
-0.5513463 -0.01019999 -0.8342141
-0.5515754 -0.01530299 -0.8339846
-0.5518961 -0.02040962 -0.8336631
-0.5523082 -0.02552107 -0.8332493
-0.5528115 -0.03063856 -0.8327429
-0.5534058 -0.0357633 -0.8321436
-0.5540909 -0.0408965 -0.831451
-0.5548664 -0.04603937 -0.8306646
-0.5557321 -0.05119314 -0.8297837
-0.5566876 -0.05635903 -0.8288079
-0.5577325 -0.06153826 -0.8277364
-0.5588662 -0.06673206 -0.8265684
-0.5600884 -0.07194167 -0.8253032
-0.5613985 -0.07716833 -0.8239398
-0.562796 -0.08241326 -0.8224772
-0.5642801 -0.08767772 -0.8209145
-0.5658502 -0.09296295 -0.8192505
-0.5675057 -0.09827022 -0.8174841
-0.5692457 -0.1036008 -0.815614
-0.5710695 -0.1089559 -0.8136389
-0.5729762 -0.1143368 -0.8115574
-0.5749648 -0.1197447 -0.809368
-0.5770345 -0.1251811 -0.8070693
-0.5791843 -0.130647 -0.8046595
-0.581413 -0.1361439 -0.802137
-0.5837195 -0.1416729 -0.7995001
-0.5861027 -0.1472353 -0.7967468
-0.5885613 -0.1528325 -0.7938752
-0.591094 -0.1584657 -0.7908834
-0.5936994 -0.1641361 -0.7877692
-0.5963762 -0.1698451 -0.7845305
-0.5991228 -0.1755939 -0.781165
-0.6019376 -0.1813837 -0.7776703
-0.6048189 -0.1872159 -0.7740441
-0.6077652 -0.1930916 -0.7702838
-0.6107745 -0.1990122 -0.7663868
-0.613845 -0.2049787 -0.7623504
-0.6169746 -0.2109924 -0.7581718
-0.6201614 -0.2170545 -0.7538482
-0.6234032 -0.2231662 -0.7493766
-0.6266977 -0.2293286 -0.7447539
-0.6300426 -0.2355429 -0.739977
-0.6334354 -0.24181 -0.7350425