# vtk DataFile Version 2.0
Written badly by Kevin Korner
ASCII
DATASET POLYDATA
POINTS 350 FLOAT
0 0 0
0.00286533 0 0
0.005730539 2.617938e-05 9.802091e-07
0.00859539 7.853171e-05 2.927256e-06
0.01145964 0.0001570484 5.827747e-06
0.01432306 0.0002617185 9.668267e-06
0.01718539 0.0003925292 1.443539e-05
0.02004642 0.0005494652 2.011565e-05
0.02290589 0.0007325092 2.669559e-05
0.02576356 0.0009416416 3.416174e-05
0.02861921 0.001176841 4.250059e-05
0.03147259 0.001438083 5.169864e-05
0.03432347 0.001725342 6.174237e-05
0.0371716 0.002038589 7.261827e-05
0.04001676 0.002377795 8.431281e-05
0.0428587 0.002742926 9.681244e-05
0.04569719 0.003133949 0.0001101036
0.048532 0.003550826 0.0001241728
0.05136289 0.003993519 0.0001390065
0.05418962 0.004461986 0.0001545911
0.05701196 0.004956184 0.0001709132
0.05982968 0.005476069 0.000187959
0.06264254 0.006021592 0.0002057152
0.06545032 0.006592704 0.0002241683
0.06825277 0.007189354 0.0002433046
0.07104968 0.007811488 0.0002631107
0.0738408 0.00845905 0.000283573
0.07662591 0.009131982 0.0003046782
0.07940477 0.009830225 0.0003264128
0.08217717 0.01055372 0.0003487632
0.08494286 0.01130239 0.0003717161
0.08770163 0.01207619 0.000395258
0.09045325 0.01287503 0.0004193755
0.09319748 0.01369886 0.0004440553
0.09593411 0.01454759 0.0004692841
0.0986629 0.01542116 0.0004950484
0.1013836 0.01631948 0.0005213349
0.1040961 0.01724249 0.0005481305
0.1068001 0.01819009 0.0005754218
0.1094953 0.01916221 0.0006031956
0.1121816 0.02015877 0.0006314388
0.1148587 0.02117967 0.0006601381
0.1175265 0.02222483 0.0006892805
0.1201846 0.02329416 0.0007188528
0.122833 0.02438756 0.0007488421
0.1254713 0.02550495 0.0007792352
0.1280993 0.02664623 0.0008100193
0.1307169 0.02781129 0.0008411813
0.1333238 0.02900005 0.0008727085
0.1359199 0.0302124 0.0009045878
0.1385048 0.03144823 0.0009368066
0.1410784 0.03270744 0.0009693521
0.1436405 0.03398992 0.001002212
0.1461908 0.03529557 0.001035372
0.1487292 0.03662427 0.001068822
0.1512555 0.03797591 0.001102547
0.1537694 0.03935038 0.001136536
0.1562708 0.04074756 0.001170776
0.1587594 0.04216733 0.001205255
0.161235 0.04360957 0.001239961
0.1636975 0.04507417 0.00127488
0.1661467 0.04656099 0.001310001
0.1685822 0.04806991 0.001345312
0.1710041 0.04960081 0.001380801
0.1734119 0.05115356 0.001416455
0.1758056 0.05272802 0.001452262
0.178185 0.05432407 0.001488211
0.1805499 0.05594156 0.00152429
0.1829 0.05758038 0.001560487
0.1852352 0.05924037 0.00159679
0.1875553 0.0609214 0.001633187
0.1898601 0.06262334 0.001669667
0.1921495 0.06434603 0.001706219
0.1944232 0.06608933 0.001742831
0.196681 0.06785311 0.001779491
0.1989228 0.0696372 0.001816189
0.2011485 0.07144147 0.001852913
0.2033577 0.07326577 0.001889651
0.2055504 0.07510994 0.001926394
0.2077263 0.07697383 0.001963129
0.2098853 0.07885728 0.001999846
0.2120273 0.08076014 0.002036535
0.2141519 0.08268226 0.002073184
0.2162592 0.08462347 0.002109782
0.2183488 0.08658361 0.00214632
0.2204207 0.08856252 0.002182786
0.2224747 0.09056004 0.00221917
0.2245105 0.092576 0.002255463
0.2265281 0.09461023 0.002291653
0.2285273 0.09666258 0.00232773
0.2305079 0.09873286 0.002363685
0.2324697 0.1008209 0.002399507
0.2344127 0.1029266 0.002435187
0.2363366 0.1050496 0.002470714
0.2382413 0.10719 0.00250608
0.2401266 0.1093474 0.002541274
0.2419924 0.1115217 0.002576287
0.2438386 0.1137127 0.00261111
0.245665 0.1159202 0.002645733
0.2474714 0.1181441 0.002680146
0.2492577 0.1203842 0.002714342
0.2510238 0.1226403 0.002748311
0.2527695 0.1249122 0.002782043
0.2544947 0.1271997 0.002815531
0.2561992 0.1295027 0.002848765
0.257883 0.1318209 0.002881737
0.2595458 0.1341541 0.002914439
0.2611876 0.1365022 0.002946861
0.2628081 0.138865 0.002978995
0.2644074 0.1412423 0.003010835
0.2659852 0.1436339 0.00304237
0.2675415 0.1460396 0.003073594
0.269076 0.1484591 0.003104498
0.2705887 0.1508924 0.003135075
0.2720796 0.1533392 0.003165316
0.2735483 0.1557992 0.003195216
0.2749949 0.1582724 0.003224765
0.2764192 0.1607585 0.003253957
0.2778211 0.1632573 0.003282784
0.2792005 0.1657686 0.00331124
0.2805573 0.1682922 0.003339317
0.2818913 0.1708279 0.003367008
0.2832026 0.1733754 0.003394307
0.2844908 0.1759346 0.003421208
0.2857561 0.1785054 0.003447703
0.2869982 0.1810873 0.003473785
0.2882171 0.1836804 0.00349945
0.2894126 0.1862842 0.003524691
0.2905848 0.1888987 0.0035495
0.2917334 0.1915237 0.003573874
0.2928584 0.1941588 0.003597805
0.2939597 0.1968039 0.003621289
0.2950372 0.1994588 0.003644318
0.2960908 0.2021233 0.003666889
0.2971205 0.2047971 0.003688996
0.2981262 0.2074801 0.003710632
0.2991077 0.210172 0.003731794
0.300065 0.2128726 0.003752477
0.3009981 0.2155816 0.003772675
0.3019069 0.218299 0.003792383
0.3027912 0.2210244 0.003811598
0.303651 0.2237576 0.003830314
0.3044863 0.2264984 0.003848528
0.305297 0.2292466 0.003866234
0.306083 0.232002 0.00388343
0.3068442 0.2347643 0.00390011
0.3075807 0.2375333 0.003916271
0.3082923 0.2403088 0.00393191
0.308979 0.2430906 0.003947022
0.3096407 0.2458784 0.003961604
0.3102773 0.2486721 0.003975653
0.3108889 0.2514714 0.003989165
0.3114754 0.254276 0.004002138
0.3120368 0.2570858 0.004014568
0.3125729 0.2599005 0.004026453
0.3130837 0.2627199 0.00403779
0.3135693 0.2655437 0.004048576
0.3140295 0.2683719 0.004058809
0.3144644 0.271204 0.004068486
0.3148738 0.2740399 0.004077606
0.3152578 0.2768794 0.004086165
0.3156164 0.2797221 0.004094163
0.3159495 0.282568 0.004101597
0.316257 0.2854168 0.004108466
0.316539 0.2882682 0.004114768
0.3167954 0.2911221 0.004120501
0.3170263 0.2939781 0.004125665
0.3172315 0.296836 0.004130259
0.3174112 0.2996957 0.00413428
0.3175651 0.3025569 0.004137728
0.3176935 0.3054194 0.004140603
0.3177962 0.3082828 0.004142904
0.3178732 0.3111471 0.00414463
0.3179246 0.314012 0.004145781
0.3179502 0.3168772 0.004146357
0.3179502 0.3197426 0.004146357
0.3179246 0.3226078 0.004145781
0.3178732 0.3254726 0.00414463
0.3177962 0.3283369 0.004142904
0.3176935 0.3312004 0.004140603
0.3175651 0.3340629 0.004137728
0.3174112 0.3369241 0.00413428
0.3172315 0.3397837 0.004130259
0.3170263 0.3426417 0.004125665
0.3167954 0.3454977 0.004120501
0.316539 0.3483515 0.004114768
0.316257 0.351203 0.004108466
0.3159495 0.3540517 0.004101597
0.3156164 0.3568976 0.004094163
0.3152578 0.3597404 0.004086165
0.3148738 0.3625799 0.004077606
0.3144644 0.3654158 0.004068486
0.3140295 0.3682479 0.004058809
0.3135693 0.371076 0.004048576
0.3130837 0.3738999 0.00403779
0.3125729 0.3767193 0.004026453
0.3120368 0.379534 0.004014568
0.3114754 0.3823438 0.004002138
0.3108889 0.3851484 0.003989165
0.3102773 0.3879477 0.003975653
0.3096407 0.3907413 0.003961604
0.308979 0.3935292 0.003947022
0.3082923 0.396311 0.00393191
0.3075807 0.3990865 0.003916271
0.3068442 0.4018555 0.00390011
0.306083 0.4046178 0.00388343
0.305297 0.4073732 0.003866234
0.3044863 0.4101214 0.003848528
0.303651 0.4128622 0.003830314
0.3027912 0.4155954 0.003811598
0.3019069 0.4183208 0.003792383
0.3009981 0.4210381 0.003772675
0.300065 0.4237472 0.003752477
0.2991077 0.4264478 0.003731794
0.2981262 0.4291397 0.003710632
0.2971205 0.4318226 0.003688996
0.2960908 0.4344965 0.003666889
0.2950372 0.4371609 0.003644318
0.2939597 0.4398159 0.003621289
0.2928584 0.442461 0.003597805
0.2917334 0.4450961 0.003573874
0.2905848 0.447721 0.0035495
0.2894126 0.4503355 0.003524691
0.2882171 0.4529394 0.00349945
0.2869982 0.4555324 0.003473785
0.2857561 0.4581144 0.003447703
0.2844908 0.4606851 0.003421208
0.2832026 0.4632444 0.003394307
0.2818913 0.4657919 0.003367008
0.2805573 0.4683276 0.003339317
0.2792005 0.4708512 0.00331124
0.2778211 0.4733625 0.003282784
0.2764192 0.4758613 0.003253957
0.2749949 0.4783473 0.003224765
0.2735483 0.4808205 0.003195216
0.2720796 0.4832806 0.003165316
0.2705887 0.4857274 0.003135075
0.269076 0.4881606 0.003104498
0.2675415 0.4905802 0.003073594
0.2659852 0.4929859 0.00304237
0.2644074 0.4953774 0.003010835
0.2628081 0.4977547 0.002978995
0.2611876 0.5001175 0.002946861
0.2595458 0.5024656 0.002914439
0.257883 0.5047989 0.002881737
0.2561992 0.5071171 0.002848765
0.2544947 0.50942 0.002815531
0.2527695 0.5117076 0.002782043
0.2510238 0.5139795 0.002748311
0.2492577 0.5162355 0.002714342
0.2474714 0.5184756 0.002680146
0.245665 0.5206995 0.002645733
0.2438386 0.5229071 0.00261111
0.2419924 0.5250981 0.002576287
0.2401266 0.5272724 0.002541274
0.2382413 0.5294298 0.00250608
0.2363366 0.5315701 0.002470714
0.2344127 0.5336932 0.002435187
0.2324697 0.5357989 0.002399507
0.2305079 0.5378869 0.002363685
0.2285273 0.5399572 0.00232773
0.2265281 0.5420095 0.002291653
0.2245105 0.5440438 0.002255463
0.2224747 0.5460597 0.00221917
0.2204207 0.5480573 0.002182786
0.2183488 0.5500362 0.00214632
0.2162592 0.5519963 0.002109782
0.2141519 0.5539375 0.002073184
0.2120273 0.5558596 0.002036535
0.2098853 0.5577625 0.001999846
0.2077263 0.5596459 0.001963129
0.2055504 0.5615098 0.001926394
0.2033577 0.563354 0.001889651
0.2011485 0.5651783 0.001852913
0.1989228 0.5669826 0.001816189
0.196681 0.5687667 0.001779491
0.1944232 0.5705304 0.001742831
0.1921495 0.5722737 0.001706219
0.1898601 0.5739964 0.001669667
0.1875553 0.5756984 0.001633187
0.1852352 0.5773794 0.00159679
0.1829 0.5790394 0.001560487
0.1805499 0.5806782 0.00152429
0.178185 0.5822957 0.001488211
0.1758056 0.5838918 0.001452262
0.1734119 0.5854662 0.001416455
0.1710041 0.587019 0.001380801
0.1685822 0.5885499 0.001345312
0.1661467 0.5900588 0.001310001
0.1636975 0.5915456 0.00127488
0.161235 0.5930102 0.001239961
0.1587594 0.5944524 0.001205255
0.1562708 0.5958722 0.001170776
0.1537694 0.5972694 0.001136536
0.1512555 0.5986439 0.001102547
0.1487292 0.5999955 0.001068822
0.1461908 0.6013242 0.001035372
0.1436405 0.6026298 0.001002212
0.1410784 0.6039123 0.0009693521
0.1385048 0.6051715 0.0009368066
0.1359199 0.6064074 0.0009045878
0.1333238 0.6076197 0.0008727085
0.1307169 0.6088085 0.0008411813
0.1280993 0.6099735 0.0008100193
0.1254713 0.6111148 0.0007792352
0.122833 0.6122322 0.0007488421
0.1201846 0.6133256 0.0007188528
0.1175265 0.6143949 0.0006892805
0.1148587 0.6154401 0.0006601381
0.1121816 0.616461 0.0006314388
0.1094953 0.6174576 0.0006031956
0.1068001 0.6184297 0.0005754218
0.1040961 0.6193773 0.0005481305
0.1013836 0.6203003 0.0005213349
0.0986629 0.6211986 0.0004950484
0.09593411 0.6220722 0.0004692841
0.09319748 0.6229209 0.0004440553
0.09045325 0.6237447 0.0004193755
0.08770163 0.6245436 0.000395258
0.08494286 0.6253174 0.0003717161
0.08217717 0.6260661 0.0003487632
0.07940477 0.6267895 0.0003264128
0.07662591 0.6274878 0.0003046782
0.0738408 0.6281607 0.000283573
0.07104968 0.6288083 0.0002631107
0.06825277 0.6294304 0.0002433046
0.06545032 0.6300271 0.0002241683
0.06264254 0.6305982 0.0002057152
0.05982968 0.6311437 0.000187959
0.05701196 0.6316636 0.0001709132
0.05418962 0.6321578 0.0001545911
0.05136289 0.6326263 0.0001390065
0.048532 0.6330689 0.0001241728
0.04569719 0.6334858 0.0001101036
0.0428587 0.6338768 9.681244e-05
0.04001676 0.634242 8.431281e-05
0.0371716 0.6345812 7.261827e-05
0.03432347 0.6348944 6.174237e-05
0.03147259 0.6351817 5.169864e-05
0.02861921 0.6354429 4.250059e-05
0.02576356 0.6356781 3.416174e-05
0.02290589 0.6358873 2.669559e-05
0.02004642 0.6360703 2.011565e-05
0.01718539 0.6362272 1.443539e-05
0.01432306 0.6363581 9.668267e-06
0.01145964 0.6364627 5.827747e-06
0.00859539 0.6365412 2.927256e-06
0.005730539 0.6365936 9.802091e-07
0.00286533 0.6366198 0
0 0.6366198 0

LINES 349 1047
2 0 1
2 1 2
2 2 3
2 3 4
2 4 5
2 5 6
2 6 7
2 7 8
2 8 9
2 9 10
2 10 11
2 11 12
2 12 13
2 13 14
2 14 15
2 15 16
2 16 17
2 17 18
2 18 19
2 19 20
2 20 21
2 21 22
2 22 23
2 23 24
2 24 25
2 25 26
2 26 27
2 27 28
2 28 29
2 29 30
2 30 31
2 31 32
2 32 33
2 33 34
2 34 35
2 35 36
2 36 37
2 37 38
2 38 39
2 39 40
2 40 41
2 41 42
2 42 43
2 43 44
2 44 45
2 45 46
2 46 47
2 47 48
2 48 49
2 49 50
2 50 51
2 51 52
2 52 53
2 53 54
2 54 55
2 55 56
2 56 57
2 57 58
2 58 59
2 59 60
2 60 61
2 61 62
2 62 63
2 63 64
2 64 65
2 65 66
2 66 67
2 67 68
2 68 69
2 69 70
2 70 71
2 71 72
2 72 73
2 73 74
2 74 75
2 75 76
2 76 77
2 77 78
2 78 79
2 79 80
2 80 81
2 81 82
2 82 83
2 83 84
2 84 85
2 85 86
2 86 87
2 87 88
2 88 89
2 89 90
2 90 91
2 91 92
2 92 93
2 93 94
2 94 95
2 95 96
2 96 97
2 97 98
2 98 99
2 99 100
2 100 101
2 101 102
2 102 103
2 103 104
2 104 105
2 105 106
2 106 107
2 107 108
2 108 109
2 109 110
2 110 111
2 111 112
2 112 113
2 113 114
2 114 115
2 115 116
2 116 117
2 117 118
2 118 119
2 119 120
2 120 121
2 121 122
2 122 123
2 123 124
2 124 125
2 125 126
2 126 127
2 127 128
2 128 129
2 129 130
2 130 131
2 131 132
2 132 133
2 133 134
2 134 135
2 135 136
2 136 137
2 137 138
2 138 139
2 139 140
2 140 141
2 141 142
2 142 143
2 143 144
2 144 145
2 145 146
2 146 147
2 147 148
2 148 149
2 149 150
2 150 151
2 151 152
2 152 153
2 153 154
2 154 155
2 155 156
2 156 157
2 157 158
2 158 159
2 159 160
2 160 161
2 161 162
2 162 163
2 163 164
2 164 165
2 165 166
2 166 167
2 167 168
2 168 169
2 169 170
2 170 171
2 171 172
2 172 173
2 173 174
2 174 175
2 175 176
2 176 177
2 177 178
2 178 179
2 179 180
2 180 181
2 181 182
2 182 183
2 183 184
2 184 185
2 185 186
2 186 187
2 187 188
2 188 189
2 189 190
2 190 191
2 191 192
2 192 193
2 193 194
2 194 195
2 195 196
2 196 197
2 197 198
2 198 199
2 199 200
2 200 201
2 201 202
2 202 203
2 203 204
2 204 205
2 205 206
2 206 207
2 207 208
2 208 209
2 209 210
2 210 211
2 211 212
2 212 213
2 213 214
2 214 215
2 215 216
2 216 217
2 217 218
2 218 219
2 219 220
2 220 221
2 221 222
2 222 223
2 223 224
2 224 225
2 225 226
2 226 227
2 227 228
2 228 229
2 229 230
2 230 231
2 231 232
2 232 233
2 233 234
2 234 235
2 235 236
2 236 237
2 237 238
2 238 239
2 239 240
2 240 241
2 241 242
2 242 243
2 243 244
2 244 245
2 245 246
2 246 247
2 247 248
2 248 249
2 249 250
2 250 251
2 251 252
2 252 253
2 253 254
2 254 255
2 255 256
2 256 257
2 257 258
2 258 259
2 259 260
2 260 261
2 261 262
2 262 263
2 263 264
2 264 265
2 265 266
2 266 267
2 267 268
2 268 269
2 269 270
2 270 271
2 271 272
2 272 273
2 273 274
2 274 275
2 275 276
2 276 277
2 277 278
2 278 279
2 279 280
2 280 281
2 281 282
2 282 283
2 283 284
2 284 285
2 285 286
2 286 287
2 287 288
2 288 289
2 289 290
2 290 291
2 291 292
2 292 293
2 293 294
2 294 295
2 295 296
2 296 297
2 297 298
2 298 299
2 299 300
2 300 301
2 301 302
2 302 303
2 303 304
2 304 305
2 305 306
2 306 307
2 307 308
2 308 309
2 309 310
2 310 311
2 311 312
2 312 313
2 313 314
2 314 315
2 315 316
2 316 317
2 317 318
2 318 319
2 319 320
2 320 321
2 321 322
2 322 323
2 323 324
2 324 325
2 325 326
2 326 327
2 327 328
2 328 329
2 329 330
2 330 331
2 331 332
2 332 333
2 333 334
2 334 335
2 335 336
2 336 337
2 337 338
2 338 339
2 339 340
2 340 341
2 341 342
2 342 343
2 343 344
2 344 345
2 345 346
2 346 347
2 347 348
2 348 349


POINT_DATA 350
SCALARS a FLOAT 1
LOOKUP_TABLE default
0.0005894628
0.0005894628
0.0005894628
0.0005894628
0.0005894628
0.0005894628
0.0005894628
0.0005894628
0.0005894628
0.0005894628
0.0005894628
0.0005894628
0.0005894628
0.0005894628
0.0005894628
0.0005894628
0.0005894628
0.0005894628
0.0005894628
0.0005894628
0.0005894628
0.0005894628
0.0005894628
0.0005894628
0.0005894628
0.0005894628
0.0005894628
0.0005894628
0.0005894628
0.0005894628
0.0005894628
0.0005894628
0.0005894628
0.0005894628
0.0005894628
0.0005894628
0.0005894628
0.0005894628
0.0005894628
0.0005894628
0.0005894628
0.0005894628
0.0005894628
0.0005894628
0.0005894628
0.0005894628
0.0005894628
0.0005894628
0.0005894628
0.0005894628
0.0005894628
0.0005894628
0.0005894628
0.0005894628
0.0005894628
0.0005894628
0.0005894628
0.0005894628
0.0005894628
0.0005894628
0.0005894628
0.0005894628
0.0005894628
0.0005894628
0.0005894628
0.0005894628
0.0005894628
0.0005894628
0.0005894628
0.0005894628
0.0005894628
0.0005894628
0.0005894628
0.0005894628
0.0005894628
0.0005894628
0.0005894628
0.0005894628
0.0005894628
0.0005894628
0.0005894628
0.0005894628
0.0005894628
0.0005894628
0.0005894628
0.0005894628
0.0005894628
0.0005894628
0.0005894628
0.0005894628
0.0005894628
0.0005894628
0.0005894628
0.0005894628
0.0005894628
0.0005894628
0.0005894628
0.0005894628
0.0005894628
0.0005894628
0.0005894628
0.0005894628
0.0005894628
0.0005894628
0.0005894628
0.0005894628
0.0005894628
0.0005894628
0.0005894628
0.0005894628
0.0005894628
0.0005894628
0.0005894628
0.0005894628
0.0005894628
0.0005894628
0.0005894628
0.0005894628
0.0005894628
0.0005894628
0.0005894628
0.0005894628
0.0005894628
0.0005894628
0.0005894628
0.0005894628
0.0005894628
0.0005894628
0.0005894628
0.0005894628
0.0005894628
0.0005894628
0.0005894628
0.0005894628
0.0005894628
0.0005894628
0.0005894628
0.0005894628
0.0005894628
0.0005894628
0.0005894628
0.0005894628
0.0005894628
0.0005894628
0.0005894628
0.0005894628
0.0005894628
0.0005894628
0.0005894628
0.0005894628
0.0005894628
0.0005894628
0.0005894628
0.0005894628
0.0005894628
0.0005894628
0.0005894628
0.0005894628
0.0005894628
0.0005894628
0.0005894628
0.0005894628
0.0005894628
0.0005894628
0.0005894628
0.0005894628
0.0005894628
0.0005894628
0.0005894628
0.0005894628
0.0005894628
0.0005894628
0.0005894628
0.0005894628
0.0005894628
0.0005894628
0.0005894628
0.0005894628
0.0005894628
0.0005894628
0.0005894628
0.0005894628
0.0005894628
0.0005894628
0.0005894628
0.0005894628
0.0005894628
0.0005894628
0.0005894628
0.0005894628
0.0005894628
0.0005894628
0.0005894628
0.0005894628
0.0005894628
0.0005894628
0.0005894628
0.0005894628
0.0005894628
0.0005894628
0.0005894628
0.0005894628
0.0005894628
0.0005894628
0.0005894628
0.0005894628
0.0005894628
0.0005894628
0.0005894628
0.0005894628
0.0005894628
0.0005894628
0.0005894628
0.0005894628
0.0005894628
0.0005894628
0.0005894628
0.0005894628
0.0005894628
0.0005894628
0.0005894628
0.0005894628
0.0005894628
0.0005894628
0.0005894628
0.0005894628
0.0005894628
0.0005894628
0.0005894628
0.0005894628
0.0005894628
0.0005894628
0.0005894628
0.0005894628
0.0005894628
0.0005894628
0.0005894628
0.0005894628
0.0005894628
0.0005894628
0.0005894628
0.0005894628
0.0005894628
0.0005894628
0.0005894628
0.0005894628
0.0005894628
0.0005894628
0.0005894628
0.0005894628
0.0005894628
0.0005894628
0.0005894628
0.0005894628
0.0005894628
0.0005894628
0.0005894628
0.0005894628
0.0005894628
0.0005894628
0.0005894628
0.0005894628
0.0005894628
0.0005894628
0.0005894628
0.0005894628
0.0005894628
0.0005894628
0.0005894628
0.0005894628
0.0005894628
0.0005894628
0.0005894628
0.0005894628
0.0005894628
0.0005894628
0.0005894628
0.0005894628
0.0005894628
0.0005894628
0.0005894628
0.0005894628
0.0005894628
0.0005894628
0.0005894628
0.0005894628
0.0005894628
0.0005894628
0.0005894628
0.0005894628
0.0005894628
0.0005894628
0.0005894628
0.0005894628
0.0005894628
0.0005894628
0.0005894628
0.0005894628
0.0005894628
0.0005894628
0.0005894628
0.0005894628
0.0005894628
0.0005894628
0.0005894628
0.0005894628
0.0005894628
0.0005894628
0.0005894628
0.0005894628
0.0005894628
0.0005894628
0.0005894628
0.0005894628
0.0005894628
0.0005894628
0.0005894628
0.0005894628
0.0005894628
0.0005894628
0.0005894628
0.0005894628
0.0005894628
0.0005894628
0.0005894628
0.0005894628
0.0005894628
0.0005894628
0.0005894628
0.0005894628
0.0005894628
0.0005894628
0.0005894628
0.0005894628
0.0005894628
0.0005894628
0.0005894628
0.0005894628
0.0005894628
0.0005894628
0.0005894628
0.0005894628
0.0005894628
0.0005894628
0.0005894628
0.0005894628
0.0005894628
0.0005894628
0.0005894628
0.0005894628


SCALARS b FLOAT 1
LOOKUP_TABLE default
0.02357851
0.02357851
0.02357851
0.02357851
0.02357851
0.02357851
0.02357851
0.02357851
0.02357851
0.02357851
0.02357851
0.02357851
0.02357851
0.02357851
0.02357851
0.02357851
0.02357851
0.02357851
0.02357851
0.02357851
0.02357851
0.02357851
0.02357851
0.02357851
0.02357851
0.02357851
0.02357851
0.02357851
0.02357851
0.02357851
0.02357851
0.02357851
0.02357851
0.02357851
0.02357851
0.02357851
0.02357851
0.02357851
0.02357851
0.02357851
0.02357851
0.02357851
0.02357851
0.02357851
0.02357851
0.02357851
0.02357851
0.02357851
0.02357851
0.02357851
0.02357851
0.02357851
0.02357851
0.02357851
0.02357851
0.02357851
0.02357851
0.02357851
0.02357851
0.02357851
0.02357851
0.02357851
0.02357851
0.02357851
0.02357851
0.02357851
0.02357851
0.02357851
0.02357851
0.02357851
0.02357851
0.02357851
0.02357851
0.02357851
0.02357851
0.02357851
0.02357851
0.02357851
0.02357851
0.02357851
0.02357851
0.02357851
0.02357851
0.02357851
0.02357851
0.02357851
0.02357851
0.02357851
0.02357851
0.02357851
0.02357851
0.02357851
0.02357851
0.02357851
0.02357851
0.02357851
0.02357851
0.02357851
0.02357851
0.02357851
0.02357851
0.02357851
0.02357851
0.02357851
0.02357851
0.02357851
0.02357851
0.02357851
0.02357851
0.02357851
0.02357851
0.02357851
0.02357851
0.02357851
0.02357851
0.02357851
0.02357851
0.02357851
0.02357851
0.02357851
0.02357851
0.02357851
0.02357851
0.02357851
0.02357851
0.02357851
0.02357851
0.02357851
0.02357851
0.02357851
0.02357851
0.02357851
0.02357851
0.02357851
0.02357851
0.02357851
0.02357851
0.02357851
0.02357851
0.02357851
0.02357851
0.02357851
0.02357851
0.02357851
0.02357851
0.02357851
0.02357851
0.02357851
0.02357851
0.02357851
0.02357851
0.02357851
0.02357851
0.02357851
0.02357851
0.02357851
0.02357851
0.02357851
0.02357851
0.02357851
0.02357851
0.02357851
0.02357851
0.02357851
0.02357851
0.02357851
0.02357851
0.02357851
0.02357851
0.02357851
0.02357851
0.02357851
0.02357851
0.02357851
0.02357851
0.02357851
0.02357851
0.02357851
0.02357851
0.02357851
0.02357851
0.02357851
0.02357851
0.02357851
0.02357851
0.02357851
0.02357851
0.02357851
0.02357851
0.02357851
0.02357851
0.02357851
0.02357851
0.02357851
0.02357851
0.02357851
0.02357851
0.02357851
0.02357851
0.02357851
0.02357851
0.02357851
0.02357851
0.02357851
0.02357851
0.02357851
0.02357851
0.02357851
0.02357851
0.02357851
0.02357851
0.02357851
0.02357851
0.02357851
0.02357851
0.02357851
0.02357851
0.02357851
0.02357851
0.02357851
0.02357851
0.02357851
0.02357851
0.02357851
0.02357851
0.02357851
0.02357851
0.02357851
0.02357851
0.02357851
0.02357851
0.02357851
0.02357851
0.02357851
0.02357851
0.02357851
0.02357851
0.02357851
0.02357851
0.02357851
0.02357851
0.02357851
0.02357851
0.02357851
0.02357851
0.02357851
0.02357851
0.02357851
0.02357851
0.02357851
0.02357851
0.02357851
0.02357851
0.02357851
0.02357851
0.02357851
0.02357851
0.02357851
0.02357851
0.02357851
0.02357851
0.02357851
0.02357851
0.02357851
0.02357851
0.02357851
0.02357851
0.02357851
0.02357851
0.02357851
0.02357851
0.02357851
0.02357851
0.02357851
0.02357851
0.02357851
0.02357851
0.02357851
0.02357851
0.02357851
0.02357851
0.02357851
0.02357851
0.02357851
0.02357851
0.02357851
0.02357851
0.02357851
0.02357851
0.02357851
0.02357851
0.02357851
0.02357851
0.02357851
0.02357851
0.02357851
0.02357851
0.02357851
0.02357851
0.02357851
0.02357851
0.02357851
0.02357851
0.02357851
0.02357851
0.02357851
0.02357851
0.02357851
0.02357851
0.02357851
0.02357851
0.02357851
0.02357851
0.02357851
0.02357851
0.02357851
0.02357851
0.02357851
0.02357851
0.02357851
0.02357851
0.02357851
0.02357851
0.02357851
0.02357851
0.02357851
0.02357851
0.02357851
0.02357851
0.02357851
0.02357851
0.02357851
0.02357851
0.02357851
0.02357851
0.02357851
0.02357851
0.02357851
0.02357851
0.02357851
0.02357851
0.02357851
0.02357851
0.02357851
0.02357851
0.02357851
0.02357851
0.02357851
0.02357851
0.02357851


VECTORS d1 FLOAT
0 0.9992895 0.03769018
-0.009143005 0.9992665 0.03718716
-0.01828359 0.9991597 0.03668307
-0.02742099 0.9989691 0.03617799
-0.03655445 0.9986948 0.03567197
-0.0456832 0.9983368 0.03516506
-0.05480647 0.9978953 0.03465733
-0.06392351 0.9973704 0.03414883
-0.07303357 0.996762 0.03363962
-0.08213588 0.9960703 0.03312976
-0.09122968 0.9952955 0.03261931
-0.1003142 0.9944376 0.03210832
-0.1093888 0.9934967 0.03159684
-0.1184526 0.992473 0.03108495
-0.1275048 0.9913666 0.03057269
-0.1365449 0.9901777 0.03006013
-0.1455719 0.9889064 0.02954731
-0.1545852 0.9875528 0.0290343
-0.163584 0.986117 0.02852116
-0.1725675 0.9845994 0.02800794
-0.1815351 0.983 0.02749469
-0.190486 0.981319 0.02698148
-0.1994195 0.9795567 0.02646836
-0.2083348 0.9777131 0.02595539
-0.2172313 0.9757885 0.02544262
-0.2261081 0.9737831 0.02493011
-0.2349646 0.9716972 0.02441792
-0.2438 0.9695308 0.0239061
-0.2526137 0.9672844 0.02339471
-0.2614048 0.964958 0.0228838
-0.2701728 0.9625519 0.02237343
-0.2789168 0.9600663 0.02186365
-0.2876362 0.9575016 0.02135453
-0.2963303 0.954858 0.02084611
-0.3049983 0.9521357 0.02033845
-0.3136397 0.949335 0.0198316
-0.3222536 0.9464561 0.01932562
-0.3308393 0.9434994 0.01882056
-0.3393963 0.9404651 0.01831649
-0.3479237 0.9373536 0.01781344
-0.356421 0.9341651 0.01731147
-0.3648874 0.9308999 0.01681065
-0.3733223 0.9275583 0.01631101
-0.3817249 0.9241407 0.01581262
-0.3900947 0.9206474 0.01531553
-0.3984309 0.9170786 0.01481978
-0.4067329 0.9134348 0.01432544
-0.415 0.9097162 0.01383256
-0.4232316 0.9059233 0.01334117
-0.431427 0.9020563 0.01285135
-0.4395855 0.8981157 0.01236314
-0.4477065 0.8941017 0.01187658
-0.4557894 0.8900147 0.01139174
-0.4638336 0.8858552 0.01090866
-0.4718383 0.8816234 0.01042739
-0.479803 0.8773198 0.009947985
-0.487727 0.8729448 0.009470491
-0.4956098 0.8684987 0.00899496
-0.5034506 0.863982 0.008521441
-0.5112489 0.859395 0.008049982
-0.519004 0.8547382 0.007580632
-0.5267154 0.8500119 0.00711344
-0.5343824 0.8452167 0.006648453
-0.5420045 0.8403528 0.006185721
-0.5495811 0.8354208 0.00572529
-0.5571115 0.830421 0.005267208
-0.5645951 0.825354 0.004811521
-0.5720315 0.8202201 0.004358277
-0.5794199 0.8150198 0.003907522
-0.5867599 0.8097536 0.003459302
-0.5940508 0.8044218 0.003013662
-0.6012922 0.7990251 0.002570648
-0.6084834 0.7935638 0.002130306
-0.6156238 0.7880384 0.001692679
-0.622713 0.7824493 0.001257813
-0.6297503 0.7767972 0.0008257507
-0.6367353 0.7710824 0.000396537
-0.6436673 0.7653054 -2.97852e-05
-0.650546 0.7594668 -0.0004531727
-0.6573706 0.7535669 -0.0008735828
-0.6641407 0.7476065 -0.001290973
-0.6708559 0.7415858 -0.001705302
-0.6775154 0.7355055 -0.002116527
-0.684119 0.7293661 -0.002524607
-0.6906659 0.723168 -0.002929501
-0.6971558 0.7169119 -0.00333117
-0.7035882 0.7105981 -0.003729571
-0.7099625 0.7042274 -0.004124667
-0.7162783 0.6978001 -0.004516416
-0.7225351 0.6913169 -0.004904781
-0.7287323 0.6847782 -0.005289722
-0.7348696 0.6781847 -0.005671201
-0.7409465 0.6715368 -0.00604918
-0.7469624 0.6648352 -0.006423622
-0.752917 0.6580804 -0.006794489
-0.7588098 0.6512729 -0.007161745
-0.7646404 0.6444133 -0.007525353
-0.7704082 0.6375022 -0.007885277
-0.7761129 0.6305401 -0.008241482
-0.781754 0.6235277 -0.008593933
-0.7873312 0.6164654 -0.008942594
-0.7928439 0.609354 -0.009287431
-0.7982918 0.6021939 -0.009628411
-0.8036744 0.5949858 -0.009965499
-0.8089914 0.5877302 -0.01029866
-0.8142424 0.5804278 -0.01062787
-0.8194268 0.5730791 -0.01095309
-0.8245445 0.5656848 -0.01127428
-0.8295949 0.5582454 -0.01159143
-0.8345777 0.5507616 -0.01190449
-0.8394925 0.5432339 -0.01221343
-0.844339 0.535663 -0.01251823
-0.8491168 0.5280496 -0.01281886
-0.8538255 0.5203941 -0.01311528
-0.8584648 0.5126972 -0.01340747
-0.8630343 0.5049597 -0.0136954
-0.8675337 0.497182 -0.01397904
-0.8719626 0.4893648 -0.01425837
-0.8763208 0.4815088 -0.01453334
-0.8806078 0.4736145 -0.01480395
-0.8848234 0.4656827 -0.01507016
-0.8889673 0.4577139 -0.01533195
-0.8930391 0.4497089 -0.01558929
-0.8970386 0.4416681 -0.01584216
-0.9009654 0.4335924 -0.01609053
-0.9048193 0.4254823 -0.01633438
-0.9086 0.4173385 -0.01657369
-0.9123071 0.4091617 -0.01680842
-0.9159404 0.4009524 -0.01703857
-0.9194997 0.3927114 -0.0172641
-0.9229846 0.3844394 -0.01748499
-0.926395 0.3761369 -0.01770123
-0.9297306 0.3678046 -0.0179128
-0.932991 0.3594433 -0.01811966
-0.9361761 0.3510535 -0.01832181
-0.9392857 0.342636 -0.01851922
-0.9423195 0.3341914 -0.01871188
-0.9452772 0.3257204 -0.01889976
-0.9481587 0.3172236 -0.01908285
-0.9509638 0.3087018 -0.01926113
-0.9536922 0.3001556 -0.01943458
-0.9563438 0.2915857 -0.01960319
-0.9589183 0.2829928 -0.01976694
-0.9614156 0.2743776 -0.01992582
-0.9638354 0.2657407 -0.0200798
-0.9661776 0.2570828 -0.02022888
-0.9684421 0.2484046 -0.02037304
-0.9706286 0.2397069 -0.02051226
-0.972737 0.2309902 -0.02064654
-0.9747671 0.2222553 -0.02077586
-0.9767188 0.2135029 -0.0209002
-0.978592 0.2047336 -0.02101956
-0.9803865 0.1959482 -0.02113393
-0.9821021 0.1871474 -0.02124329
-0.9837388 0.1783318 -0.02134764
-0.9852964 0.1695022 -0.02144695
-0.9867749 0.1606592 -0.02154123
-0.988174 0.1518035 -0.02163047
-0.9894937 0.1429359 -0.02171465
-0.9907339 0.134057 -0.02179377
-0.9918946 0.1251675 -0.02186782
-0.9929756 0.1162682 -0.0219368
-0.9939768 0.1073598 -0.02200069
-0.9948982 0.09844287 -0.02205949
-0.9957397 0.0895182 -0.0221132
-0.9965012 0.08058648 -0.02216181
-0.9971827 0.07164841 -0.02220532
-0.9977842 0.06270471 -0.02224371
-0.9983056 0.05375606 -0.022277
-0.9987468 0.04480319 -0.02230517
-0.9991078 0.03584678 -0.02232822
-0.9993887 0.02688756 -0.02234615
-0.9995893 0.01792621 -0.02235896
-0.9997097 0.00896346 -0.02236664
-0.9997498 2.945214e-13 -0.0223692
-0.9997097 -0.00896346 -0.02236664
-0.9995893 -0.01792621 -0.02235896
-0.9993887 -0.02688756 -0.02234615
-0.9991078 -0.03584678 -0.02232822
-0.9987468 -0.04480319 -0.02230517
-0.9983056 -0.05375606 -0.022277
-0.9977842 -0.06270471 -0.02224371
-0.9971827 -0.07164841 -0.02220532
-0.9965012 -0.08058648 -0.02216181
-0.9957397 -0.0895182 -0.0221132
-0.9948982 -0.09844287 -0.02205949
-0.9939768 -0.1073598 -0.02200069
-0.9929756 -0.1162682 -0.0219368
-0.9918946 -0.1251675 -0.02186782
-0.9907339 -0.134057 -0.02179377
-0.9894937 -0.1429359 -0.02171465
-0.988174 -0.1518035 -0.02163047
-0.9867749 -0.1606592 -0.02154123
-0.9852964 -0.1695022 -0.02144695
-0.9837388 -0.1783318 -0.02134764
-0.9821021 -0.1871474 -0.02124329
-0.9803865 -0.1959482 -0.02113393
-0.978592 -0.2047336 -0.02101956
-0.9767188 -0.2135029 -0.0209002
-0.9747671 -0.2222553 -0.02077586
-0.972737 -0.2309902 -0.02064654
-0.9706286 -0.2397069 -0.02051226
-0.9684421 -0.2484046 -0.02037304
-0.9661776 -0.2570828 -0.02022888
-0.9638354 -0.2657407 -0.0200798
-0.9614156 -0.2743776 -0.01992582
-0.9589183 -0.2829928 -0.01976694