# vtk DataFile Version 2.0
Written badly by Kevin Korner
ASCII
DATASET POLYDATA
POINTS 350 FLOAT
0 0 0
0.00286533 0 0
0.005730523 2.537165e-05 -1.164715e-05
0.008595309 7.616097e-05 -3.478572e-05
0.01145942 0.0001524102 -6.925922e-05
0.01432257 0.0002541577 -0.0001149105
0.01718451 0.0003814382 -0.0001715818
0.02004497 0.0005342828 -0.0002391147
0.02290367 0.0007127185 -0.0003173503
0.02576034 0.000916769 -0.000406129
0.02861473 0.001146454 -0.0005052909
0.03146656 0.00140179 -0.0006146754
0.03431558 0.00168279 -0.0007341217
0.03716151 0.001989463 -0.0008634686
0.0400041 0.002321814 -0.001002554
0.04284308 0.002679844 -0.001151217
0.0456782 0.003063554 -0.001309294
0.04850919 0.003472937 -0.001476624
0.0513358 0.003907985 -0.001653043
0.05415777 0.004368687 -0.001838389
0.05697485 0.004855027 -0.002032498
0.05978677 0.005366986 -0.002235207
0.06259329 0.005904542 -0.002446353
0.06539416 0.006467671 -0.002665773
0.06818912 0.007056343 -0.002893303
0.07097793 0.007670527 -0.003128781
0.07376033 0.008310188 -0.003372041
0.07653608 0.008975288 -0.003622922
0.07930495 0.009665785 -0.00388126
0.08206667 0.01038164 -0.004146892
0.08482101 0.01112279 -0.004419655
0.08756773 0.0118892 -0.004699386
0.09030659 0.01268081 -0.004985923
0.09303736 0.01349757 -0.005279104
0.09575979 0.01433941 -0.005578765
0.09847365 0.01520627 -0.005884747
0.1011787 0.01609809 -0.006196886
0.1038747 0.0170148 -0.006515022
0.1065615 0.01795633 -0.006838994
0.1092388 0.01892261 -0.007168642
0.1119063 0.01991355 -0.007503806
0.1145639 0.02092907 -0.007844326
0.1172113 0.02196911 -0.008190043
0.1198484 0.02303356 -0.008540798
0.1224748 0.02412235 -0.008896433
0.1250904 0.02523539 -0.009256791
0.127695 0.02637257 -0.009621715
0.1302883 0.02753382 -0.009991048
0.1328701 0.02871902 -0.01036463
0.1354403 0.02992808 -0.01074232
0.1379985 0.0311609 -0.01112394
0.1405447 0.03241737 -0.01150936
0.1430785 0.03369739 -0.01189841
0.1455998 0.03500084 -0.01229095
0.1481084 0.03632761 -0.01268681
0.1506041 0.0376776 -0.01308586
0.1530867 0.03905067 -0.01348793
0.1555559 0.04044673 -0.01389289
0.1580116 0.04186563 -0.01430058
0.1604537 0.04330727 -0.01471084
0.1628818 0.04477151 -0.01512355
0.1652958 0.04625823 -0.01553854
0.1676956 0.0477673 -0.01595567
0.1700809 0.04929858 -0.01637481
0.1724515 0.05085195 -0.01679579
0.1748073 0.05242727 -0.01721849
0.1771481 0.05402441 -0.01764276
0.1794737 0.05564321 -0.01806845
0.1817839 0.05728355 -0.01849543
0.1840786 0.05894528 -0.01892356
0.1863575 0.06062825 -0.0193527
0.1886205 0.06233232 -0.01978271
0.1908675 0.06405734 -0.02021345
0.1930982 0.06580316 -0.0206448
0.1953126 0.06756963 -0.02107661
0.1975103 0.06935659 -0.02150875
0.1996913 0.07116389 -0.02194109
0.2018555 0.07299138 -0.0223735
0.2040025 0.07483889 -0.02280584
0.2061324 0.07670626 -0.023238
0.2082449 0.07859333 -0.02366983
0.2103398 0.08049995 -0.02410122
0.2124171 0.08242594 -0.02453204
0.2144765 0.08437114 -0.02496215
0.216518 0.08633538 -0.02539145
0.2185413 0.08831849 -0.0258198
0.2205464 0.0903203 -0.02624708
0.2225331 0.09234065 -0.02667318
0.2245011 0.09437935 -0.02709797
0.2264505 0.09643623 -0.02752134
0.2283811 0.09851112 -0.02794316
0.2302927 0.1006038 -0.02836333
0.2321851 0.1027142 -0.02878173
0.2340583 0.104842 -0.02919824
0.2359122 0.1069872 -0.02961276
0.2377465 0.1091494 -0.03002516
0.2395612 0.1113286 -0.03043535
0.2413561 0.1135245 -0.03084321
0.2431312 0.1157369 -0.03124864
0.2448862 0.1179657 -0.03165153
0.2466211 0.1202107 -0.03205177
0.2483358 0.1224717 -0.03244927
0.2500301 0.1247485 -0.03284391
0.2517039 0.1270409 -0.0332356
0.2533571 0.1293487 -0.03362424
0.2549896 0.1316717 -0.03400973
0.2566013 0.1340098 -0.03439197
0.258192 0.1363627 -0.03477086
0.2597617 0.1387302 -0.03514632
0.2613103 0.1411122 -0.03551824
0.2628376 0.1435084 -0.03588654
0.2643435 0.1459186 -0.03625113
0.265828 0.1483427 -0.0366119
0.267291 0.1507804 -0.03696879
0.2687323 0.1532316 -0.03732169
0.2701518 0.155696 -0.03767053
0.2715495 0.1581735 -0.03801522
0.2729253 0.1606637 -0.03835567
0.274279 0.1631666 -0.03869181
0.2756107 0.1656819 -0.03902355
0.2769201 0.1682095 -0.03935082
0.2782073 0.170749 -0.03967354
0.279472 0.1733003 -0.03999162
0.2807144 0.1758632 -0.04030501
0.2819341 0.1784375 -0.04061361
0.2831313 0.181023 -0.04091737
0.2843058 0.1836194 -0.04121621
0.2854575 0.1862266 -0.04151006
0.2865863 0.1888443 -0.04179885
0.2876923 0.1914723 -0.04208251
0.2887752 0.1941105 -0.04236099
0.2898351 0.1967585 -0.04263421
0.2908719 0.1994162 -0.04290211
0.2918854 0.2020834 -0.04316464
0.2928758 0.2047599 -0.04342173
0.2938427 0.2074453 -0.04367332
0.2947864 0.2101396 -0.04391936
0.2957065 0.2128425 -0.04415979
0.2966032 0.2155538 -0.04439456
0.2974763 0.2182732 -0.04462361
0.2983257 0.2210006 -0.04484689
0.2991516 0.2237357 -0.04506435
0.2999536 0.2264784 -0.04527595
0.300732 0.2292283 -0.04548164
0.3014864 0.2319853 -0.04568136
0.3022171 0.2347491 -0.04587508
0.3029238 0.2375195 -0.04606275
0.3036065 0.2402964 -0.04624434
0.3042652 0.2430795 -0.04641979
0.3048999 0.2458685 -0.04658908
0.3055105 0.2486632 -0.04675216
0.306097 0.2514635 -0.04690901
0.3066593 0.2542691 -0.04705957
0.3071975 0.2570797 -0.04720383
0.3077114 0.2598952 -0.04734175
0.308201 0.2627154 -0.04747329
0.3086663 0.2655399 -0.04759844
0.3091074 0.2683686 -0.04771716
0.309524 0.2712012 -0.04782943
0.3099163 0.2740376 -0.04793522
0.3102842 0.2768775 -0.04803451
0.3106277 0.2797206 -0.04812728
0.3109467 0.2825668 -0.04821351
0.3112413 0.2854159 -0.04829317
0.3115114 0.2882675 -0.04836626
0.3117569 0.2911215 -0.04843276
0.311978 0.2939777 -0.04849264
0.3121745 0.2968358 -0.04854591
0.3123465 0.2996955 -0.04859254
0.312494 0.3025568 -0.04863253
0.3126169 0.3054193 -0.04866587
0.3127152 0.3082828 -0.04869254
0.3127889 0.3111471 -0.04871256
0.3128381 0.314012 -0.0487259
0.3128627 0.3168772 -0.04873258
0.3128627 0.3197426 -0.04873258
0.3128381 0.3226078 -0.0487259
0.3127889 0.3254726 -0.04871256
0.3127152 0.328337 -0.04869254
0.3126169 0.3312005 -0.04866587
0.312494 0.334063 -0.04863253
0.3123465 0.3369242 -0.04859254
0.3121745 0.339784 -0.04854591
0.311978 0.3426421 -0.04849264
0.3117569 0.3454983 -0.04843276
0.3115114 0.3483523 -0.04836626
0.3112413 0.3512039 -0.04829317
0.3109467 0.3540529 -0.04821351
0.3106277 0.3568991 -0.04812728
0.3102842 0.3597423 -0.04803451
0.3099163 0.3625822 -0.04793522
0.309524 0.3654186 -0.04782943
0.3091074 0.3682512 -0.04771716
0.3086663 0.3710799 -0.04759844
0.308201 0.3739044 -0.04747329
0.3077114 0.3767245 -0.04734175
0.3071975 0.37954 -0.04720383
0.3066593 0.3823507 -0.04705957
0.306097 0.3851562 -0.04690901
0.3055105 0.3879565 -0.04675216
0.3048999 0.3907513 -0.04658908
0.3042652 0.3935403 -0.04641979
0.3036065 0.3963234 -0.04624434
0.3029238 0.3991002 -0.04606275
0.3022171 0.4018707 -0.04587508
0.3014864 0.4046345 -0.04568136
0.300732 0.4073915 -0.04548164
0.2999536 0.4101414 -0.04527595
0.2991516 0.412884 -0.04506435
0.2983257 0.4156192 -0.04484689
0.2974763 0.4183466 -0.04462361
0.2966032 0.421066 -0.04439456
0.2957065 0.4237773 -0.04415979
0.2947864 0.4264802 -0.04391936
0.2938427 0.4291744 -0.04367332
0.2928758 0.4318599 -0.04342173
0.2918854 0.4345363 -0.04316464
0.2908719 0.4372035 -0.04290211
0.2898351 0.4398612 -0.04263421
0.2887752 0.4425093 -0.04236099
0.2876923 0.4451474 -0.04208251
0.2865863 0.4477755 -0.04179885
0.2854575 0.4503932 -0.04151006
0.2843058 0.4530003 -0.04121621
0.2831313 0.4555968 -0.04091737
0.2819341 0.4581822 -0.04061361
0.2807144 0.4607565 -0.04030501
0.279472 0.4633194 -0.03999162
0.2782073 0.4658708 -0.03967354
0.2769201 0.4684103 -0.03935082
0.2756107 0.4709378 -0.03902355
0.274279 0.4734531 -0.03869181
0.2729253 0.475956 -0.03835567
0.2715495 0.4784463 -0.03801522
0.2701518 0.4809238 -0.03767053
0.2687323 0.4833882 -0.03732169
0.267291 0.4858393 -0.03696879
0.265828 0.4882771 -0.0366119
0.2643435 0.4907012 -0.03625113
0.2628376 0.4931114 -0.03588654
0.2613103 0.4955076 -0.03551824
0.2597617 0.4978896 -0.03514632
0.258192 0.5002571 -0.03477086
0.2566013 0.50261 -0.03439197
0.2549896 0.5049481 -0.03400973
0.2533571 0.5072711 -0.03362424
0.2517039 0.5095789 -0.0332356
0.2500301 0.5118713 -0.03284391
0.2483358 0.5141481 -0.03244927
0.2466211 0.5164091 -0.03205177
0.2448862 0.5186541 -0.03165153
0.2431312 0.5208829 -0.03124864
0.2413561 0.5230953 -0.03084321
0.2395612 0.5252912 -0.03043535
0.2377465 0.5274704 -0.03002516
0.2359122 0.5296326 -0.02961276
0.2340583 0.5317777 -0.02919824
0.2321851 0.5339056 -0.02878173
0.2302927 0.5360159 -0.02836333
0.2283811 0.5381087 -0.02794316
0.2264505 0.5401835 -0.02752134
0.2245011 0.5422404 -0.02709797
0.2225331 0.5442791 -0.02667318
0.2205464 0.5462995 -0.02624708
0.2185413 0.5483013 -0.0258198
0.216518 0.5502844 -0.02539145
0.2144765 0.5522486 -0.02496215
0.2124171 0.5541938 -0.02453204
0.2103398 0.5561198 -0.02410122
0.2082449 0.5580264 -0.02366983
0.2061324 0.5599135 -0.023238
0.2040025 0.5617809 -0.02280584
0.2018555 0.5636284 -0.0223735
0.1996913 0.5654559 -0.02194109
0.1975103 0.5672632 -0.02150875
0.1953126 0.5690501 -0.02107661
0.1930982 0.5708166 -0.0206448
0.1908675 0.5725624 -0.02021345
0.1886205 0.5742875 -0.01978271
0.1863575 0.5759915 -0.0193527
0.1840786 0.5776745 -0.01892356
0.1817839 0.5793362 -0.01849543
0.1794737 0.5809766 -0.01806845
0.1771481 0.5825954 -0.01764276
0.1748073 0.5841925 -0.01721849
0.1724515 0.5857678 -0.01679579
0.1700809 0.5873212 -0.01637481
0.1676956 0.5888525 -0.01595567
0.1652958 0.5903615 -0.01553854
0.1628818 0.5918483 -0.01512355
0.1604537 0.5933125 -0.01471084
0.1580116 0.5947541 -0.01430058
0.1555559 0.596173 -0.01389289
0.1530867 0.5975691 -0.01348793
0.1506041 0.5989422 -0.01308586
0.1481084 0.6002922 -0.01268681
0.1455998 0.6016189 -0.01229095
0.1430785 0.6029224 -0.01189841
0.1405447 0.6042024 -0.01150936
0.1379985 0.6054589 -0.01112394
0.1354403 0.6066917 -0.01074232
0.1328701 0.6079008 -0.01036463
0.1302883 0.609086 -0.009991048
0.127695 0.6102472 -0.009621715
0.1250904 0.6113844 -0.009256791
0.1224748 0.6124974 -0.008896433
0.1198484 0.6135862 -0.008540798
0.1172113 0.6146507 -0.008190043
0.1145639 0.6156907 -0.007844326
0.1119063 0.6167062 -0.007503806
0.1092388 0.6176972 -0.007168642
0.1065615 0.6186634 -0.006838994
0.1038747 0.619605 -0.006515022
0.1011787 0.6205217 -0.006196886
0.09847365 0.6214135 -0.005884747
0.09575979 0.6222804 -0.005578765
0.09303736 0.6231222 -0.005279104
0.09030659 0.623939 -0.004985923
0.08756773 0.6247306 -0.004699386
0.08482101 0.625497 -0.004419655
0.08206667 0.6262381 -0.004146892
0.07930495 0.626954 -0.00388126
0.07653608 0.6276445 -0.003622922
0.07376033 0.6283096 -0.003372041
0.07097793 0.6289492 -0.003128781
0.06818912 0.6295634 -0.002893303
0.06539416 0.6301521 -0.002665773
0.06259329 0.6307152 -0.002446353
0.05978677 0.6312528 -0.002235207
0.05697485 0.6317647 -0.002032498
0.05415777 0.6322511 -0.001838389
0.0513358 0.6327118 -0.001653043
0.04850919 0.6331468 -0.001476624
0.0456782 0.6335562 -0.001309294
0.04284308 0.6339399 -0.001151217
0.0400041 0.634298 -0.001002554
0.03716151 0.6346303 -0.0008634686
0.03431558 0.634937 -0.0007341217
0.03146656 0.635218 -0.0006146754
0.02861473 0.6354733 -0.0005052909
0.02576034 0.635703 -0.000406129
0.02290367 0.6359071 -0.0003173503
0.02004497 0.6360855 -0.0002391147
0.01718451 0.6362383 -0.0001715818
0.01432257 0.6363656 -0.0001149105
0.01145942 0.6364674 -6.925922e-05
0.008595309 0.6365436 -3.478572e-05
0.005730523 0.6365944 -1.164715e-05
0.00286533 0.6366198 0
0 0.6366198 0

LINES 349 1047
2 0 1
2 1 2
2 2 3
2 3 4
2 4 5
2 5 6
2 6 7
2 7 8
2 8 9
2 9 10
2 10 11
2 11 12
2 12 13
2 13 14
2 14 15
2 15 16
2 16 17
2 17 18
2 18 19
2 19 20
2 20 21
2 21 22
2 22 23
2 23 24
2 24 25
2 25 26
2 26 27
2 27 28
2 28 29
2 29 30
2 30 31
2 31 32
2 32 33
2 33 34
2 34 35
2 35 36
2 36 37
2 37 38
2 38 39
2 39 40
2 40 41
2 41 42
2 42 43
2 43 44
2 44 45
2 45 46
2 46 47
2 47 48
2 48 49
2 49 50
2 50 51
2 51 52
2 52 53
2 53 54
2 54 55
2 55 56
2 56 57
2 57 58
2 58 59
2 59 60
2 60 61
2 61 62
2 62 63
2 63 64
2 64 65
2 65 66
2 66 67
2 67 68
2 68 69
2 69 70
2 70 71
2 71 72
2 72 73
2 73 74
2 74 75
2 75 76
2 76 77
2 77 78
2 78 79
2 79 80
2 80 81
2 81 82
2 82 83
2 83 84
2 84 85
2 85 86
2 86 87
2 87 88
2 88 89
2 89 90
2 90 91
2 91 92
2 92 93
2 93 94
2 94 95
2 95 96
2 96 97
2 97 98
2 98 99
2 99 100
2 100 101
2 101 102
2 102 103
2 103 104
2 104 105
2 105 106
2 106 107
2 107 108
2 108 109
2 109 110
2 110 111
2 111 112
2 112 113
2 113 114
2 114 115
2 115 116
2 116 117
2 117 118
2 118 119
2 119 120
2 120 121
2 121 122
2 122 123
2 123 124
2 124 125
2 125 126
2 126 127
2 127 128
2 128 129
2 129 130
2 130 131
2 131 132
2 132 133
2 133 134
2 134 135
2 135 136
2 136 137
2 137 138
2 138 139
2 139 140
2 140 141
2 141 142
2 142 143
2 143 144
2 144 145
2 145 146
2 146 147
2 147 148
2 148 149
2 149 150
2 150 151
2 151 152
2 152 153
2 153 154
2 154 155
2 155 156
2 156 157
2 157 158
2 158 159
2 159 160
2 160 161
2 161 162
2 162 163
2 163 164
2 164 165
2 165 166
2 166 167
2 167 168
2 168 169
2 169 170
2 170 171
2 171 172
2 172 173
2 173 174
2 174 175
2 175 176
2 176 177
2 177 178
2 178 179
2 179 180
2 180 181
2 181 182
2 182 183
2 183 184
2 184 185
2 185 186
2 186 187
2 187 188
2 188 189
2 189 190
2 190 191
2 191 192
2 192 193
2 193 194
2 194 195
2 195 196
2 196 197
2 197 198
2 198 199
2 199 200
2 200 201
2 201 202
2 202 203
2 203 204
2 204 205
2 205 206
2 206 207
2 207 208
2 208 209
2 209 210
2 210 211
2 211 212
2 212 213
2 213 214
2 214 215
2 215 216
2 216 217
2 217 218
2 218 219
2 219 220
2 220 221
2 221 222
2 222 223
2 223 224
2 224 225
2 225 226
2 226 227
2 227 228
2 228 229
2 229 230
2 230 231
2 231 232
2 232 233
2 233 234
2 234 235
2 235 236
2 236 237
2 237 238
2 238 239
2 239 240
2 240 241
2 241 242
2 242 243
2 243 244
2 244 245
2 245 246
2 246 247
2 247 248
2 248 249
2 249 250
2 250 251
2 251 252
2 252 253
2 253 254
2 254 255
2 255 256
2 256 257
2 257 258
2 258 259
2 259 260
2 260 261
2 261 262
2 262 263
2 263 264
2 264 265
2 265 266
2 266 267
2 267 268
2 268 269
2 269 270
2 270 271
2 271 272
2 272 273
2 273 274
2 274 275
2 275 276
2 276 277
2 277 278
2 278 279
2 279 280
2 280 281
2 281 282
2 282 283
2 283 284
2 284 285
2 285 286
2 286 287
2 287 288
2 288 289
2 289 290
2 290 291
2 291 292
2 292 293
2 293 294
2 294 295
2 295 296
2 296 297
2 297 298
2 298 299
2 299 300
2 300 301
2 301 302
2 302 303
2 303 304
2 304 305
2 305 306
2 306 307
2 307 308
2 308 309
2 309 310
2 310 311
2 311 312
2 312 313
2 313 314
2 314 315
2 315 316
2 316 317
2 317 318
2 318 319
2 319 320
2 320 321
2 321 322
2 322 323
2 323 324
2 324 325
2 325 326
2 326 327
2 327 328
2 328 329
2 329 330
2 330 331
2 331 332
2 332 333
2 333 334
2 334 335
2 335 336
2 336 337
2 337 338
2 338 339
2 339 340
2 340 341
2 341 342
2 342 343
2 343 344
2 344 345
2 345 346
2 346 347
2 347 348
2 348 349


POINT_DATA 350
SCALARS a FLOAT 1
LOOKUP_TABLE default
0.0005894628
0.0005894628
0.0005894628
0.0005894628
0.0005894628
0.0005894628
0.0005894628
0.0005894628
0.0005894628
0.0005894628
0.0005894628
0.0005894628
0.0005894628
0.0005894628
0.0005894628
0.0005894628
0.0005894628
0.0005894628
0.0005894628
0.0005894628
0.0005894628
0.0005894628
0.0005894628
0.0005894628
0.0005894628
0.0005894628
0.0005894628
0.0005894628
0.0005894628
0.0005894628
0.0005894628
0.0005894628
0.0005894628
0.0005894628
0.0005894628
0.0005894628
0.0005894628
0.0005894628
0.0005894628
0.0005894628
0.0005894628
0.0005894628
0.0005894628
0.0005894628
0.0005894628
0.0005894628
0.0005894628
0.0005894628
0.0005894628
0.0005894628
0.0005894628
0.0005894628
0.0005894628
0.0005894628
0.0005894628
0.0005894628
0.0005894628
0.0005894628
0.0005894628
0.0005894628
0.0005894628
0.0005894628
0.0005894628
0.0005894628
0.0005894628
0.0005894628
0.0005894628
0.0005894628
0.0005894628
0.0005894628
0.0005894628
0.0005894628
0.0005894628
0.0005894628
0.0005894628
0.0005894628
0.0005894628
0.0005894628
0.0005894628
0.0005894628
0.0005894628
0.0005894628
0.0005894628
0.0005894628
0.0005894628
0.0005894628
0.0005894628
0.0005894628
0.0005894628
0.0005894628
0.0005894628
0.0005894628
0.0005894628
0.0005894628
0.0005894628
0.0005894628
0.0005894628
0.0005894628
0.0005894628
0.0005894628
0.0005894628
0.0005894628
0.0005894628
0.0005894628
0.0005894628
0.0005894628
0.0005894628
0.0005894628
0.0005894628
0.0005894628
0.0005894628
0.0005894628
0.0005894628
0.0005894628
0.0005894628
0.0005894628
0.0005894628
0.0005894628
0.0005894628
0.0005894628
0.0005894628
0.0005894628
0.0005894628
0.0005894628
0.0005894628
0.0005894628
0.0005894628
0.0005894628
0.0005894628
0.0005894628
0.0005894628
0.0005894628
0.0005894628
0.0005894628
0.0005894628
0.0005894628
0.0005894628
0.0005894628
0.0005894628
0.0005894628
0.0005894628
0.0005894628
0.0005894628
0.0005894628
0.0005894628
0.0005894628
0.0005894628
0.0005894628
0.0005894628
0.0005894628
0.0005894628
0.0005894628
0.0005894628
0.0005894628
0.0005894628
0.0005894628
0.0005894628
0.0005894628
0.0005894628
0.0005894628
0.0005894628
0.0005894628
0.0005894628
0.0005894628
0.0005894628
0.0005894628
0.0005894628
0.0005894628
0.0005894628
0.0005894628
0.0005894628
0.0005894628
0.0005894628
0.0005894628
0.0005894628
0.0005894628
0.0005894628
0.0005894628
0.0005894628
0.0005894628
0.0005894628
0.0005894628
0.0005894628
0.0005894628
0.0005894628
0.0005894628
0.0005894628
0.0005894628
0.0005894628
0.0005894628
0.0005894628
0.0005894628
0.0005894628
0.0005894628
0.0005894628
0.0005894628
0.0005894628
0.0005894628
0.0005894628
0.0005894628
0.0005894628
0.0005894628
0.0005894628
0.0005894628
0.0005894628
0.0005894628
0.0005894628
0.0005894628
0.0005894628
0.0005894628
0.0005894628
0.0005894628
0.0005894628
0.0005894628
0.0005894628
0.0005894628
0.0005894628
0.0005894628
0.0005894628
0.0005894628
0.0005894628
0.0005894628
0.0005894628
0.0005894628
0.0005894628
0.0005894628
0.0005894628
0.0005894628
0.0005894628
0.0005894628
0.0005894628
0.0005894628
0.0005894628
0.0005894628
0.0005894628
0.0005894628
0.0005894628
0.0005894628
0.0005894628
0.0005894628
0.0005894628
0.0005894628
0.0005894628
0.0005894628
0.0005894628
0.0005894628
0.0005894628
0.0005894628
0.0005894628
0.0005894628
0.0005894628
0.0005894628
0.0005894628
0.0005894628
0.0005894628
0.0005894628
0.0005894628
0.0005894628
0.0005894628
0.0005894628
0.0005894628
0.0005894628
0.0005894628
0.0005894628
0.0005894628
0.0005894628
0.0005894628
0.0005894628
0.0005894628
0.0005894628
0.0005894628
0.0005894628
0.0005894628
0.0005894628
0.0005894628
0.0005894628
0.0005894628
0.0005894628
0.0005894628
0.0005894628
0.0005894628
0.0005894628
0.0005894628
0.0005894628
0.0005894628
0.0005894628
0.0005894628
0.0005894628
0.0005894628
0.0005894628
0.0005894628
0.0005894628
0.0005894628
0.0005894628
0.0005894628
0.0005894628
0.0005894628
0.0005894628
0.0005894628
0.0005894628
0.0005894628
0.0005894628
0.0005894628
0.0005894628
0.0005894628
0.0005894628
0.0005894628
0.0005894628
0.0005894628
0.0005894628
0.0005894628
0.0005894628
0.0005894628
0.0005894628
0.0005894628
0.0005894628
0.0005894628
0.0005894628
0.0005894628
0.0005894628
0.0005894628
0.0005894628
0.0005894628
0.0005894628
0.0005894628
0.0005894628
0.0005894628
0.0005894628
0.0005894628
0.0005894628
0.0005894628
0.0005894628
0.0005894628
0.0005894628
0.0005894628
0.0005894628
0.0005894628
0.0005894628
0.0005894628
0.0005894628
0.0005894628
0.0005894628
0.0005894628
0.0005894628
0.0005894628
0.0005894628
0.0005894628
0.0005894628
0.0005894628
0.0005894628


SCALARS b FLOAT 1
LOOKUP_TABLE default
0.02357851
0.02357851
0.02357851
0.02357851
0.02357851
0.02357851
0.02357851
0.02357851
0.02357851
0.02357851
0.02357851
0.02357851
0.02357851
0.02357851
0.02357851
0.02357851
0.02357851
0.02357851
0.02357851
0.02357851
0.02357851
0.02357851
0.02357851
0.02357851
0.02357851
0.02357851
0.02357851
0.02357851
0.02357851
0.02357851
0.02357851
0.02357851
0.02357851
0.02357851
0.02357851
0.02357851
0.02357851
0.02357851
0.02357851
0.02357851
0.02357851
0.02357851
0.02357851
0.02357851
0.02357851
0.02357851
0.02357851
0.02357851
0.02357851
0.02357851
0.02357851
0.02357851
0.02357851
0.02357851
0.02357851
0.02357851
0.02357851
0.02357851
0.02357851
0.02357851
0.02357851
0.02357851
0.02357851
0.02357851
0.02357851
0.02357851
0.02357851
0.02357851
0.02357851
0.02357851
0.02357851
0.02357851
0.02357851
0.02357851
0.02357851
0.02357851
0.02357851
0.02357851
0.02357851
0.02357851
0.02357851
0.02357851
0.02357851
0.02357851
0.02357851
0.02357851
0.02357851
0.02357851
0.02357851
0.02357851
0.02357851
0.02357851
0.02357851
0.02357851
0.02357851
0.02357851
0.02357851
0.02357851
0.02357851
0.02357851
0.02357851
0.02357851
0.02357851
0.02357851
0.02357851
0.02357851
0.02357851
0.02357851
0.02357851
0.02357851
0.02357851
0.02357851
0.02357851
0.02357851
0.02357851
0.02357851
0.02357851
0.02357851
0.02357851
0.02357851
0.02357851
0.02357851
0.02357851
0.02357851
0.02357851
0.02357851
0.02357851
0.02357851
0.02357851
0.02357851
0.02357851
0.02357851
0.02357851
0.02357851
0.02357851
0.02357851
0.02357851
0.02357851
0.02357851
0.02357851
0.02357851
0.02357851
0.02357851
0.02357851
0.02357851
0.02357851
0.02357851
0.02357851
0.02357851
0.02357851
0.02357851
0.02357851
0.02357851
0.02357851
0.02357851
0.02357851
0.02357851
0.02357851
0.02357851
0.02357851
0.02357851
0.02357851
0.02357851
0.02357851
0.02357851
0.02357851
0.02357851
0.02357851
0.02357851
0.02357851
0.02357851
0.02357851
0.02357851
0.02357851
0.02357851
0.02357851
0.02357851
0.02357851
0.02357851
0.02357851
0.02357851
0.02357851
0.02357851
0.02357851
0.02357851
0.02357851
0.02357851
0.02357851
0.02357851
0.02357851
0.02357851
0.02357851
0.02357851
0.02357851
0.02357851
0.02357851
0.02357851
0.02357851
0.02357851
0.02357851
0.02357851
0.02357851
0.02357851
0.02357851
0.02357851
0.02357851
0.02357851
0.02357851
0.02357851
0.02357851
0.02357851
0.02357851
0.02357851
0.02357851
0.02357851
0.02357851
0.02357851
0.02357851
0.02357851
0.02357851
0.02357851
0.02357851
0.02357851
0.02357851
0.02357851
0.02357851
0.02357851
0.02357851
0.02357851
0.02357851
0.02357851
0.02357851
0.02357851
0.02357851
0.02357851
0.02357851
0.02357851
0.02357851
0.02357851
0.02357851
0.02357851
0.02357851
0.02357851
0.02357851
0.02357851
0.02357851
0.02357851
0.02357851
0.02357851
0.02357851
0.02357851
0.02357851
0.02357851
0.02357851
0.02357851
0.02357851
0.02357851
0.02357851
0.02357851
0.02357851
0.02357851
0.02357851
0.02357851
0.02357851
0.02357851
0.02357851
0.02357851
0.02357851
0.02357851
0.02357851
0.02357851
0.02357851
0.02357851
0.02357851
0.02357851
0.02357851
0.02357851
0.02357851
0.02357851
0.02357851
0.02357851
0.02357851
0.02357851
0.02357851
0.02357851
0.02357851
0.02357851
0.02357851
0.02357851
0.02357851
0.02357851
0.02357851
0.02357851
0.02357851
0.02357851
0.02357851
0.02357851
0.02357851
0.02357851
0.02357851
0.02357851
0.02357851
0.02357851
0.02357851
0.02357851
0.02357851
0.02357851
0.02357851
0.02357851
0.02357851
0.02357851
0.02357851
0.02357851
0.02357851
0.02357851
0.02357851
0.02357851
0.02357851
0.02357851
0.02357851
0.02357851
0.02357851
0.02357851
0.02357851
0.02357851
0.02357851
0.02357851
0.02357851
0.02357851
0.02357851
0.02357851
0.02357851
0.02357851
0.02357851
0.02357851
0.02357851
0.02357851
0.02357851
0.02357851
0.02357851
0.02357851
0.02357851
0.02357851
0.02357851
0.02357851
0.02357851
0.02357851
0.02357851
0.02357851
0.02357851


VECTORS d1 FLOAT
0 0.9074844 -0.4200857
-0.009743113 0.9098511 -0.4148205
-0.019478 0.9120913 -0.4095242
-0.02920335 0.9142052 -0.4041979
-0.03891789 0.9161931 -0.3988427
-0.04862032 0.9180553 -0.3934597
-0.0583094 0.919792 -0.3880498
-0.06798388 0.9214036 -0.3826141
-0.07764253 0.9228904 -0.3771537
-0.08728412 0.9242528 -0.3716695
-0.09690747 0.9254911 -0.3661627
-0.1065114 0.9266058 -0.3606343
-0.1160947 0.9275972 -0.3550853
-0.1256562 0.9284657 -0.3495167
-0.1351949 0.9292119 -0.3439296
-0.1447095 0.9298362 -0.3383249
-0.154199 0.9303391 -0.3327038
-0.1636623 0.9307211 -0.3270672
-0.1730983 0.9309826 -0.3214161
-0.182506 0.9311243 -0.3157516
-0.1918842 0.9311467 -0.3100747
-0.2012321 0.9310503 -0.3043863
-0.2105485 0.9308357 -0.2986874
-0.2198325 0.9305036 -0.2929791
-0.2290831 0.9300544 -0.2872623
-0.2382993 0.929489 -0.2815381
-0.2474803 0.9288078 -0.2758073
-0.256625 0.9280115 -0.2700709
-0.2657325 0.9271008 -0.26433
-0.2748021 0.9260763 -0.2585855
-0.2838327 0.9249388 -0.2528382
-0.2928235 0.923689 -0.2470893
-0.3017737 0.9223274 -0.2413395
-0.3106824 0.920855 -0.2355899
-0.3195489 0.9192723 -0.2298413
-0.3283723 0.9175801 -0.2240947
-0.3371518 0.9157792 -0.218351
-0.3458867 0.9138703 -0.2126111
-0.3545763 0.9118542 -0.2068759
-0.3632197 0.9097316 -0.2011463
-0.3718163 0.9075034 -0.1954231
-0.3803654 0.9051703 -0.1897073
-0.3888662 0.9027332 -0.1839997
-0.3973182 0.9001927 -0.1783011
-0.4057206 0.8975499 -0.1726125
-0.4140728 0.8948053 -0.1669346
-0.4223741 0.89196 -0.1612684
-0.4306241 0.8890146 -0.1556145
-0.438822 0.8859701 -0.149974
-0.4469672 0.8828273 -0.1443474
-0.4550593 0.8795871 -0.1387358
-0.4630976 0.8762502 -0.1331398
-0.4710817 0.8728175 -0.1275603
-0.4790109 0.86929 -0.121998
-0.4868848 0.8656684 -0.1164537
-0.4947029 0.8619536 -0.1109282
-0.5024647 0.8581465 -0.1054223
-0.5101696 0.854248 -0.09993658
-0.5178173 0.8502589 -0.09447189
-0.5254074 0.8461802 -0.08902895
-0.5329393 0.8420127 -0.08360848
-0.5404127 0.8377572 -0.0782112
-0.5478271 0.8334148 -0.0728378
-0.5551821 0.8289862 -0.06748898
-0.5624774 0.8244723 -0.06216544
-0.5697127 0.8198741 -0.05686785
-0.5768874 0.8151924 -0.05159689
-0.5840014 0.8104281 -0.04635322
-0.5910542 0.8055822 -0.0411375
-0.5980455 0.8006555 -0.03595037
-0.604975 0.7956488 -0.03079246
-0.6118425 0.7905632 -0.02566442
-0.6186475 0.7853994 -0.02056687
-0.6253899 0.7801584 -0.0155004
-0.6320694 0.7748411 -0.01046564
-0.6386857 0.7694483 -0.005463185
-0.6452385 0.763981 -0.0004936127
-0.6517277 0.7584401 0.004442491
-0.6581529 0.7528263 0.009344552
-0.664514 0.7471407 0.01421201
-0.6708107 0.7413841 0.0190443
-0.6770428 0.7355573 0.02384089
-0.6832103 0.7296614 0.02860122
-0.6893127 0.723697 0.03332477
-0.6953501 0.7176652 0.03801101
-0.7013222 0.7115668 0.04265943
-0.7072288 0.7054027 0.04726952
-0.7130698 0.6991738 0.05184077
-0.7188451 0.6928808 0.0563727
-0.7245545 0.6865247 0.06086482
-0.7301979 0.6801064 0.06531664
-0.7357752 0.6736267 0.06972771
-0.7412862 0.6670865 0.07409756
-0.7467308 0.6604866 0.07842573
-0.752109 0.6538279 0.08271177
-0.7574206 0.6471112 0.08695525
-0.7626655 0.6403373 0.09115574
-0.7678437 0.6335073 0.0953128
-0.7729552 0.6266217 0.09942602
-0.7779997 0.6196816 0.103495
-0.7829772 0.6126877 0.1075193
-0.7878878 0.6056409 0.1114986
-0.7927313 0.598542 0.1154324
-0.7975076 0.5913918 0.1193204
-0.8022168 0.5841912 0.1231622
-0.8068588 0.5769409 0.1269574
-0.8114335 0.5696417 0.1307057
-0.8159409 0.5622946 0.1344067
-0.8203811 0.5549003 0.13806
-0.8247539 0.5474595 0.1416654
-0.8290593 0.5399732 0.1452225
-0.8332974 0.532442 0.1487309
-0.8374681 0.5248668 0.1521904
-0.8415715 0.5172484 0.1556006
-0.8456074 0.5095876 0.1589612
-0.8495759 0.5018851 0.1622719
-0.853477 0.4941417 0.1655324
-0.8573107 0.4863582 0.1687424
-0.8610771 0.4785354 0.1719016
-0.864776 0.470674 0.1750099
-0.8684076 0.4627748 0.1780667
-0.8719718 0.4548385 0.181072
-0.8754687 0.446866 0.1840255
-0.8788982 0.4388579 0.1869268
-0.8822605 0.430815 0.1897758
-0.8855554 0.4227381 0.1925722
-0.8887831 0.414628 0.1953158
-0.8919436 0.4064852 0.1980063
-0.8950368 0.3983106 0.2006435
-0.8980628 0.390105 0.2032272
-0.9010217 0.3818689 0.2057571
-0.9039135 0.3736033 0.2082332
-0.9067381 0.3653087 0.210655
-0.9094957 0.3569859 0.2130226
-0.9121862 0.3486357 0.2153356
-0.9148098 0.3402587 0.2175938
-0.9173664 0.3318556 0.2197972
-0.919856 0.3234272 0.2219455
-0.9222787 0.3149742 0.2240385
-0.9246346 0.3064972 0.2260761
-0.9269236 0.297997 0.2280581
-0.9291458 0.2894742 0.2299843
-0.9313012 0.2809296 0.2318547
-0.9333899 0.2723638 0.233669
-0.9354119 0.2637776 0.2354271
-0.9373673 0.2551716 0.2371288
-0.939256 0.2465464 0.2387742
-0.9410781 0.2379029 0.2403629
-0.9428336 0.2292416 0.2418949
-0.9445226 0.2205632 0.2433701
-0.946145 0.2118685 0.2447883
-0.9477011 0.203158 0.2461494
-0.9491906 0.1944325 0.2474535
-0.9506137 0.1856926 0.2487002
-0.9519705 0.1769389 0.2498896
-0.9532609 0.1681723 0.2510215
-0.9544849 0.1593932 0.2520959
-0.9556426 0.1506024 0.2531127
-0.9567341 0.1418006 0.2540718
-0.9577593 0.1329883 0.2549731
-0.9587182 0.1241663 0.2558166
-0.9596109 0.1153352 0.2566022
-0.9604374 0.1064957 0.2573299
-0.9611977 0.09764838 0.2579995
-0.9618919 0.08879392 0.2586111
-0.9625198 0.07993298 0.2591645
-0.9630817 0.07106621 0.2596599
-0.9635774 0.06219426 0.260097
-0.964007 0.05331778 0.2604759
-0.9643705 0.04443741 0.2607966
-0.9646679 0.03555381 0.261059
-0.9648992 0.02666762 0.2612631
-0.9650644 0.01777949 0.2614089
-0.9651635 0.00889007 0.2614964
-0.9651966 2.775558e-17 0.2615255
-0.9651635 -0.00889007 0.2614964
-0.9650644 -0.01777949 0.2614089
-0.9648992 -0.02666762 0.2612631
-0.9646679 -0.03555381 0.261059
-0.9643705 -0.04443741 0.2607966
-0.964007 -0.05331778 0.2604759
-0.9635774 -0.06219426 0.260097
-0.9630817 -0.07106621 0.2596599
-0.9625198 -0.07993298 0.2591645
-0.9618919 -0.08879392 0.2586111
-0.9611977 -0.09764838 0.2579995
-0.9604374 -0.1064957 0.2573299
-0.9596109 -0.1153352 0.2566022
-0.9587182 -0.1241663 0.2558166
-0.9577593 -0.1329883 0.2549731
-0.9567341 -0.1418006 0.2540718
-0.9556426 -0.1506024 0.2531127
-0.9544849 -0.1593932 0.2520959
-0.9532609 -0.1681723 0.2510215
-0.9519705 -0.1769389 0.2498896
-0.9506137 -0.1856926 0.2487002
-0.9491906 -0.1944325 0.2474535
-0.9477011 -0.203158 0.2461494
-0.946145 -0.2118685 0.2447883
-0.9445226 -0.2205632 0.2433701
-0.9428336 -0.2292416 0.2418949
-0.9410781 -0.2379029 0.2403629
-0.939256 -0.2465464 0.2387742
-0.9373673 -0.2551716 0.2371288
-0.9354119 -0.2637776 0.2354271
-0.9333899 -0.2723638 0.233669
-0.9313012 -0.2809296 0.2318547
-0.9291458 -0.2894742 0.2299843
-0.9269236 -0.297997 0.2280581
-0.9246346 -0.3064972 0.2260761
-0.9222787 -0.3149742 0.2240385
-0.919856 -0.3234272 0.2219455
-0.9173664 -0.3318556 0.2197972