# vtk DataFile Version 2.0
Written badly by Kevin Korner
ASCII
DATASET POLYDATA
POINTS 350 FLOAT
0 0 0
0.00286533 0 0
0.005730539 2.618368e-05 -2.449853e-07
0.00859539 7.854433e-05 -7.316141e-07
0.01145964 0.0001570731 -1.456539e-06
0.01432306 0.0002617588 -2.416408e-06
0.0171854 0.0003925883 -3.607864e-06
0.02004643 0.0005495461 -5.027546e-06
0.0229059 0.0007326147 -6.672088e-06
0.02576359 0.0009417742 -8.538121e-06
0.02861924 0.001177003 -1.062227e-05
0.03147264 0.001438276 -1.292117e-05
0.03432353 0.001725569 -1.543143e-05
0.03717168 0.002038851 -1.814968e-05
0.04001685 0.002378094 -2.107254e-05
0.04285881 0.002743263 -2.419662e-05
0.04569733 0.003134325 -2.751854e-05
0.04853216 0.003551243 -3.103492e-05
0.05136308 0.003993976 -3.474237e-05
0.05418984 0.004462485 -3.86375e-05
0.05701222 0.004956726 -4.271695e-05
0.05982998 0.005476653 -4.697731e-05
0.06264289 0.006022219 -5.141522e-05
0.06545071 0.006593375 -5.602729e-05
0.06825322 0.007190068 -6.081014e-05
0.07105018 0.007812244 -6.576041e-05
0.07384136 0.008459849 -7.087471e-05
0.07662654 0.009132824 -7.614967e-05
0.07940547 0.009831109 -8.158194e-05
0.08217794 0.01055464 -8.716815e-05
0.08494371 0.01130336 -9.290495e-05
0.08770256 0.01207719 -9.878897e-05
0.09045427 0.01287608 -0.0001048169
0.09319859 0.01369994 -0.0001109853
0.09593532 0.01454871 -0.000117291
0.09866421 0.01542232 -0.0001237305
0.1013851 0.01632068 -0.0001303005
0.1040976 0.01724372 -0.0001369978
0.1068017 0.01819135 -0.000143819
0.1094971 0.01916351 -0.0001507608
0.1121835 0.02016009 -0.00015782
0.1148608 0.02118102 -0.0001649931
0.1175287 0.02222621 -0.000172277
0.120187 0.02329557 -0.0001796684
0.1228354 0.024389 -0.000187164
0.1254739 0.02550641 -0.0001947606
0.1281021 0.02664771 -0.0002024548
0.1307199 0.0278128 -0.0002102436
0.1333269 0.02900158 -0.0002181236
0.1359231 0.03021394 -0.0002260917
0.1385082 0.03144979 -0.0002341446
0.141082 0.03270902 -0.0002422792
0.1436443 0.03399152 -0.0002504923
0.1461948 0.03529718 -0.0002587807
0.1487335 0.03662589 -0.0002671413
0.1512599 0.03797754 -0.0002755709
0.1537741 0.03935202 -0.0002840663
0.1562756 0.04074921 -0.0002926246
0.1587645 0.04216898 -0.0003012426
0.1612404 0.04361123 -0.0003099171
0.1637031 0.04507583 -0.0003186452
0.1661524 0.04656265 -0.0003274237
0.1685883 0.04807157 -0.0003362497
0.1710103 0.04960247 -0.00034512
0.1734184 0.05115521 -0.0003540317
0.1758124 0.05272967 -0.0003629819
0.178192 0.05432572 -0.0003719674
0.1805572 0.05594321 -0.0003809853
0.1829075 0.05758201 -0.0003900328
0.185243 0.059242 -0.0003991068
0.1875634 0.06092302 -0.0004082044
0.1898685 0.06262494 -0.0004173228
0.1921581 0.06434762 -0.0004264591
0.1944321 0.06609092 -0.0004356103
0.1966903 0.06785468 -0.0004447737
0.1989324 0.06963876 -0.0004539465
0.2011583 0.07144301 -0.0004631258
0.2033678 0.07326729 -0.0004723088
0.2055608 0.07511144 -0.0004814929
0.207737 0.07697531 -0.0004906751
0.2098964 0.07885875 -0.0004998528
0.2120386 0.08076159 -0.0005090234
0.2141636 0.08268368 -0.000518184
0.2162712 0.08462487 -0.0005273321
0.2183611 0.08658499 -0.000536465
0.2204333 0.08856388 -0.0005455801
0.2224876 0.09056137 -0.0005546747
0.2245238 0.09257731 -0.0005637463
0.2265417 0.09461152 -0.0005727924
0.2285412 0.09666384 -0.0005818103
0.2305221 0.0987341 -0.0005907976
0.2324843 0.1008221 -0.0005997518
0.2344276 0.1029278 -0.0006086703
0.2363518 0.1050508 -0.0006175509
0.2382569 0.1071911 -0.000626391
0.2401426 0.1093485 -0.0006351882
0.2420087 0.1115228 -0.0006439402
0.2438552 0.1137137 -0.0006526445
0.2456819 0.1159213 -0.000661299
0.2474887 0.1181452 -0.0006699012
0.2492754 0.1203852 -0.000678449
0.2510418 0.1226413 -0.00068694
0.2527878 0.1249131 -0.0006953719
0.2545134 0.1272006 -0.0007037427
0.2562182 0.1295035 -0.0007120501
0.2579023 0.1318217 -0.000720292
0.2595655 0.1341549 -0.0007284663
0.2612076 0.136503 -0.0007365707
0.2628285 0.1388658 -0.0007446034
0.2644281 0.1412431 -0.0007525621
0.2660062 0.1436346 -0.0007604449
0.2675628 0.1460402 -0.0007682499
0.2690977 0.1484598 -0.0007759749
0.2706108 0.150893 -0.0007836182
0.2721019 0.1533398 -0.0007911777
0.273571 0.1557998 -0.0007986516
0.2750179 0.158273 -0.000806038
0.2764425 0.1607591 -0.0008133351
0.2778447 0.1632578 -0.0008205411
0.2792245 0.1657691 -0.0008276542
0.2805816 0.1682926 -0.0008346727
0.2819159 0.1708283 -0.0008415947
0.2832275 0.1733758 -0.0008484188
0.284516 0.1759351 -0.0008551431
0.2857816 0.1785057 -0.0008617661
0.287024 0.1810877 -0.0008682861
0.2882432 0.1836807 -0.0008747016
0.289439 0.1862846 -0.000881011
0.2906114 0.188899 -0.0008872128
0.2917603 0.1915239 -0.0008933055
0.2928856 0.1941591 -0.0008992877
0.2939872 0.1968042 -0.0009051579
0.295065 0.1994591 -0.0009109148
0.2961189 0.2021235 -0.0009165569
0.2971488 0.2047973 -0.0009220829
0.2981547 0.2074803 -0.0009274916
0.2991365 0.2101722 -0.0009327816
0.3000941 0.2128727 -0.0009379517
0.3010274 0.2155818 -0.0009430007
0.3019364 0.2182991 -0.0009479273
0.302821 0.2210245 -0.0009527305
0.303681 0.2237577 -0.0009574092
0.3045165 0.2264985 -0.0009619621
0.3053274 0.2292467 -0.0009663883
0.3061136 0.232002 -0.0009706867
0.3068751 0.2347643 -0.0009748564
0.3076117 0.2375334 -0.0009788963
0.3083235 0.2403089 -0.0009828056
0.3090104 0.2430907 -0.0009865832
0.3096723 0.2458785 -0.0009902285
0.3103091 0.2486721 -0.0009937404
0.3109209 0.2514714 -0.0009971182
0.3115075 0.254276 -0.001000361
0.312069 0.2570858 -0.001003468
0.3126053 0.2599005 -0.001006439
0.3131162 0.2627199 -0.001009273
0.3136019 0.2655438 -0.00101197
0.3140623 0.2683719 -0.001014528
0.3144973 0.271204 -0.001016947
0.3149068 0.2740399 -0.001019226
0.315291 0.2768794 -0.001021366
0.3156496 0.2797222 -0.001023365
0.3159828 0.2825681 -0.001025224
0.3162904 0.2854168 -0.001026941
0.3165725 0.2882682 -0.001028516
0.316829 0.2911221 -0.001029949
0.3170599 0.2939781 -0.00103124
0.3172652 0.296836 -0.001032389
0.3174449 0.2996957 -0.001033394
0.3175989 0.3025569 -0.001034256
0.3177273 0.3054194 -0.001034974
0.31783 0.3082828 -0.00103555
0.3179071 0.3111471 -0.001035981
0.3179584 0.314012 -0.001036269
0.3179841 0.3168772 -0.001036413
0.3179841 0.3197426 -0.001036413
0.3179584 0.3226078 -0.001036269
0.3179071 0.3254726 -0.001035981
0.31783 0.3283369 -0.00103555
0.3177273 0.3312004 -0.001034974
0.3175989 0.3340629 -0.001034256
0.3174449 0.3369241 -0.001033394
0.3172652 0.3397837 -0.001032389
0.3170599 0.3426417 -0.00103124
0.316829 0.3454977 -0.001029949
0.3165725 0.3483515 -0.001028516
0.3162904 0.351203 -0.001026941
0.3159828 0.3540517 -0.001025224
0.3156496 0.3568976 -0.001023365
0.315291 0.3597404 -0.001021366
0.3149068 0.3625799 -0.001019226
0.3144973 0.3654158 -0.001016947
0.3140623 0.3682479 -0.001014528
0.3136019 0.371076 -0.00101197
0.3131162 0.3738999 -0.001009273
0.3126053 0.3767193 -0.001006439
0.312069 0.379534 -0.001003468
0.3115075 0.3823437 -0.001000361
0.3109209 0.3851484 -0.0009971182
0.3103091 0.3879476 -0.0009937404
0.3096723 0.3907413 -0.0009902285
0.3090104 0.3935291 -0.0009865832
0.3083235 0.3963109 -0.0009828056
0.3076117 0.3990864 -0.0009788963
0.3068751 0.4018554 -0.0009748564
0.3061136 0.4046177 -0.0009706867
0.3053274 0.4073731 -0.0009663883
0.3045165 0.4101213 -0.0009619621
0.303681 0.4128621 -0.0009574092
0.302821 0.4155953 -0.0009527305
0.3019364 0.4183206 -0.0009479273
0.3010274 0.421038 -0.0009430007
0.3000941 0.423747 -0.0009379517
0.2991365 0.4264476 -0.0009327816
0.2981547 0.4291395 -0.0009274916
0.2971488 0.4318224 -0.0009220829
0.2961189 0.4344962 -0.0009165569
0.295065 0.4371607 -0.0009109148
0.2939872 0.4398156 -0.0009051579
0.2928856 0.4424607 -0.0008992877
0.2917603 0.4450958 -0.0008933055
0.2906114 0.4477207 -0.0008872128
0.289439 0.4503352 -0.000881011
0.2882432 0.4529391 -0.0008747016
0.287024 0.4555321 -0.0008682861
0.2857816 0.458114 -0.0008617661
0.284516 0.4606847 -0.0008551431
0.2832275 0.4632439 -0.0008484188
0.2819159 0.4657915 -0.0008415947
0.2805816 0.4683271 -0.0008346727
0.2792245 0.4708507 -0.0008276542
0.2778447 0.473362 -0.0008205411
0.2764425 0.4758607 -0.0008133351
0.2750179 0.4783468 -0.000806038
0.273571 0.4808199 -0.0007986516
0.2721019 0.48328 -0.0007911777
0.2706108 0.4857267 -0.0007836182
0.2690977 0.48816 -0.0007759749
0.2675628 0.4905795 -0.0007682499
0.2660062 0.4929852 -0.0007604449
0.2644281 0.4953767 -0.0007525621
0.2628285 0.497754 -0.0007446034
0.2612076 0.5001167 -0.0007365707
0.2595655 0.5024648 -0.0007284663
0.2579023 0.5047981 -0.000720292
0.2562182 0.5071162 -0.0007120501
0.2545134 0.5094192 -0.0007037427
0.2527878 0.5117066 -0.0006953719
0.2510418 0.5139785 -0.00068694
0.2492754 0.5162346 -0.000678449
0.2474887 0.5184746 -0.0006699012
0.2456819 0.5206985 -0.000661299
0.2438552 0.522906 -0.0006526445
0.2420087 0.525097 -0.0006439402
0.2401426 0.5272713 -0.0006351882
0.2382569 0.5294287 -0.000626391
0.2363518 0.531569 -0.0006175509
0.2344276 0.533692 -0.0006086703
0.2324843 0.5357976 -0.0005997518
0.2305221 0.5378857 -0.0005907976
0.2285412 0.5399559 -0.0005818103
0.2265417 0.5420082 -0.0005727924
0.2245238 0.5440425 -0.0005637463
0.2224876 0.5460584 -0.0005546747
0.2204333 0.5480559 -0.0005455801
0.2183611 0.5500348 -0.000536465
0.2162712 0.5519949 -0.0005273321
0.2141636 0.5539361 -0.000518184
0.2120386 0.5558582 -0.0005090234
0.2098964 0.557761 -0.0004998528
0.207737 0.5596445 -0.0004906751
0.2055608 0.5615083 -0.0004814929
0.2033678 0.5633525 -0.0004723088
0.2011583 0.5651768 -0.0004631258
0.1989324 0.566981 -0.0004539465
0.1966903 0.5687651 -0.0004447737
0.1944321 0.5705289 -0.0004356103
0.1921581 0.5722721 -0.0004264591
0.1898685 0.5739948 -0.0004173228
0.1875634 0.5756968 -0.0004082044
0.185243 0.5773778 -0.0003991068
0.1829075 0.5790378 -0.0003900328
0.1805572 0.5806766 -0.0003809853
0.178192 0.5822941 -0.0003719674
0.1758124 0.5838901 -0.0003629819
0.1734184 0.5854646 -0.0003540317
0.1710103 0.5870173 -0.00034512
0.1685883 0.5885482 -0.0003362497
0.1661524 0.5900571 -0.0003274237
0.1637031 0.5915439 -0.0003186452
0.1612404 0.5930085 -0.0003099171
0.1587645 0.5944508 -0.0003012426
0.1562756 0.5958706 -0.0002926246
0.1537741 0.5972678 -0.0002840663
0.1512599 0.5986422 -0.0002755709
0.1487335 0.5999939 -0.0002671413
0.1461948 0.6013226 -0.0002587807
0.1436443 0.6026283 -0.0002504923
0.141082 0.6039108 -0.0002422792
0.1385082 0.60517 -0.0002341446
0.1359231 0.6064058 -0.0002260917
0.1333269 0.6076182 -0.0002181236
0.1307199 0.608807 -0.0002102436
0.1281021 0.6099721 -0.0002024548
0.1254739 0.6111134 -0.0001947606
0.1228354 0.6122308 -0.000187164
0.120187 0.6133242 -0.0001796684
0.1175287 0.6143936 -0.000172277
0.1148608 0.6154387 -0.0001649931
0.1121835 0.6164597 -0.00015782
0.1094971 0.6174563 -0.0001507608
0.1068017 0.6184284 -0.000143819
0.1040976 0.6193761 -0.0001369978
0.1013851 0.6202991 -0.0001303005
0.09866421 0.6211975 -0.0001237305
0.09593532 0.6220711 -0.000117291
0.09319859 0.6229198 -0.0001109853
0.09045427 0.6237437 -0.0001048169
0.08770256 0.6245426 -9.878897e-05
0.08494371 0.6253164 -9.290495e-05
0.08217794 0.6260651 -8.716815e-05
0.07940547 0.6267887 -8.158194e-05
0.07662654 0.6274869 -7.614967e-05
0.07384136 0.6281599 -7.087471e-05
0.07105018 0.6288075 -6.576041e-05
0.06825322 0.6294297 -6.081014e-05
0.06545071 0.6300264 -5.602729e-05
0.06264289 0.6305976 -5.141522e-05
0.05982998 0.6311431 -4.697731e-05
0.05701222 0.631663 -4.271695e-05
0.05418984 0.6321573 -3.86375e-05
0.05136308 0.6326258 -3.474237e-05
0.04853216 0.6330685 -3.103492e-05
0.04569733 0.6334854 -2.751854e-05
0.04285881 0.6338765 -2.419662e-05
0.04001685 0.6342417 -2.107254e-05
0.03717168 0.6345809 -1.814968e-05
0.03432353 0.6348942 -1.543143e-05
0.03147264 0.6351815 -1.292117e-05
0.02861924 0.6354428 -1.062227e-05
0.02576359 0.635678 -8.538121e-06
0.0229059 0.6358872 -6.672088e-06
0.02004643 0.6360702 -5.027546e-06
0.0171854 0.6362272 -3.607864e-06
0.01432306 0.636358 -2.416408e-06
0.01145964 0.6364627 -1.456539e-06
0.00859539 0.6365412 -7.316141e-07
0.005730539 0.6365936 -2.449853e-07
0.00286533 0.6366198 0
0 0.6366198 0

LINES 349 1047
2 0 1
2 1 2
2 2 3
2 3 4
2 4 5
2 5 6
2 6 7
2 7 8
2 8 9
2 9 10
2 10 11
2 11 12
2 12 13
2 13 14
2 14 15
2 15 16
2 16 17
2 17 18
2 18 19
2 19 20
2 20 21
2 21 22
2 22 23
2 23 24
2 24 25
2 25 26
2 26 27
2 27 28
2 28 29
2 29 30
2 30 31
2 31 32
2 32 33
2 33 34
2 34 35
2 35 36
2 36 37
2 37 38
2 38 39
2 39 40
2 40 41
2 41 42
2 42 43
2 43 44
2 44 45
2 45 46
2 46 47
2 47 48
2 48 49
2 49 50
2 50 51
2 51 52
2 52 53
2 53 54
2 54 55
2 55 56
2 56 57
2 57 58
2 58 59
2 59 60
2 60 61
2 61 62
2 62 63
2 63 64
2 64 65
2 65 66
2 66 67
2 67 68
2 68 69
2 69 70
2 70 71
2 71 72
2 72 73
2 73 74
2 74 75
2 75 76
2 76 77
2 77 78
2 78 79
2 79 80
2 80 81
2 81 82
2 82 83
2 83 84
2 84 85
2 85 86
2 86 87
2 87 88
2 88 89
2 89 90
2 90 91
2 91 92
2 92 93
2 93 94
2 94 95
2 95 96
2 96 97
2 97 98
2 98 99
2 99 100
2 100 101
2 101 102
2 102 103
2 103 104
2 104 105
2 105 106
2 106 107
2 107 108
2 108 109
2 109 110
2 110 111
2 111 112
2 112 113
2 113 114
2 114 115
2 115 116
2 116 117
2 117 118
2 118 119
2 119 120
2 120 121
2 121 122
2 122 123
2 123 124
2 124 125
2 125 126
2 126 127
2 127 128
2 128 129
2 129 130
2 130 131
2 131 132
2 132 133
2 133 134
2 134 135
2 135 136
2 136 137
2 137 138
2 138 139
2 139 140
2 140 141
2 141 142
2 142 143
2 143 144
2 144 145
2 145 146
2 146 147
2 147 148
2 148 149
2 149 150
2 150 151
2 151 152
2 152 153
2 153 154
2 154 155
2 155 156
2 156 157
2 157 158
2 158 159
2 159 160
2 160 161
2 161 162
2 162 163
2 163 164
2 164 165
2 165 166
2 166 167
2 167 168
2 168 169
2 169 170
2 170 171
2 171 172
2 172 173
2 173 174
2 174 175
2 175 176
2 176 177
2 177 178
2 178 179
2 179 180
2 180 181
2 181 182
2 182 183
2 183 184
2 184 185
2 185 186
2 186 187
2 187 188
2 188 189
2 189 190
2 190 191
2 191 192
2 192 193
2 193 194
2 194 195
2 195 196
2 196 197
2 197 198
2 198 199
2 199 200
2 200 201
2 201 202
2 202 203
2 203 204
2 204 205
2 205 206
2 206 207
2 207 208
2 208 209
2 209 210
2 210 211
2 211 212
2 212 213
2 213 214
2 214 215
2 215 216
2 216 217
2 217 218
2 218 219
2 219 220
2 220 221
2 221 222
2 222 223
2 223 224
2 224 225
2 225 226
2 226 227
2 227 228
2 228 229
2 229 230
2 230 231
2 231 232
2 232 233
2 233 234
2 234 235
2 235 236
2 236 237
2 237 238
2 238 239
2 239 240
2 240 241
2 241 242
2 242 243
2 243 244
2 244 245
2 245 246
2 246 247
2 247 248
2 248 249
2 249 250
2 250 251
2 251 252
2 252 253
2 253 254
2 254 255
2 255 256
2 256 257
2 257 258
2 258 259
2 259 260
2 260 261
2 261 262
2 262 263
2 263 264
2 264 265
2 265 266
2 266 267
2 267 268
2 268 269
2 269 270
2 270 271
2 271 272
2 272 273
2 273 274
2 274 275
2 275 276
2 276 277
2 277 278
2 278 279
2 279 280
2 280 281
2 281 282
2 282 283
2 283 284
2 284 285
2 285 286
2 286 287
2 287 288
2 288 289
2 289 290
2 290 291
2 291 292
2 292 293
2 293 294
2 294 295
2 295 296
2 296 297
2 297 298
2 298 299
2 299 300
2 300 301
2 301 302
2 302 303
2 303 304
2 304 305
2 305 306
2 306 307
2 307 308
2 308 309
2 309 310
2 310 311
2 311 312
2 312 313
2 313 314
2 314 315
2 315 316
2 316 317
2 317 318
2 318 319
2 319 320
2 320 321
2 321 322
2 322 323
2 323 324
2 324 325
2 325 326
2 326 327
2 327 328
2 328 329
2 329 330
2 330 331
2 331 332
2 332 333
2 333 334
2 334 335
2 335 336
2 336 337
2 337 338
2 338 339
2 339 340
2 340 341
2 341 342
2 342 343
2 343 344
2 344 345
2 345 346
2 346 347
2 347 348
2 348 349


POINT_DATA 350
SCALARS a FLOAT 1
LOOKUP_TABLE default
0.0005894628
0.0005894628
0.0005894628
0.0005894628
0.0005894628
0.0005894628
0.0005894628
0.0005894628
0.0005894628
0.0005894628
0.0005894628
0.0005894628
0.0005894628
0.0005894628
0.0005894628
0.0005894628
0.0005894628
0.0005894628
0.0005894628
0.0005894628
0.0005894628
0.0005894628
0.0005894628
0.0005894628
0.0005894628
0.0005894628
0.0005894628
0.0005894628
0.0005894628
0.0005894628
0.0005894628
0.0005894628
0.0005894628
0.0005894628
0.0005894628
0.0005894628
0.0005894628
0.0005894628
0.0005894628
0.0005894628
0.0005894628
0.0005894628
0.0005894628
0.0005894628
0.0005894628
0.0005894628
0.0005894628
0.0005894628
0.0005894628
0.0005894628
0.0005894628
0.0005894628
0.0005894628
0.0005894628
0.0005894628
0.0005894628
0.0005894628
0.0005894628
0.0005894628
0.0005894628
0.0005894628
0.0005894628
0.0005894628
0.0005894628
0.0005894628
0.0005894628
0.0005894628
0.0005894628
0.0005894628
0.0005894628
0.0005894628
0.0005894628
0.0005894628
0.0005894628
0.0005894628
0.0005894628
0.0005894628
0.0005894628
0.0005894628
0.0005894628
0.0005894628
0.0005894628
0.0005894628
0.0005894628
0.0005894628
0.0005894628
0.0005894628
0.0005894628
0.0005894628
0.0005894628
0.0005894628
0.0005894628
0.0005894628
0.0005894628
0.0005894628
0.0005894628
0.0005894628
0.0005894628
0.0005894628
0.0005894628
0.0005894628
0.0005894628
0.0005894628
0.0005894628
0.0005894628
0.0005894628
0.0005894628
0.0005894628
0.0005894628
0.0005894628
0.0005894628
0.0005894628
0.0005894628
0.0005894628
0.0005894628
0.0005894628
0.0005894628
0.0005894628
0.0005894628
0.0005894628
0.0005894628
0.0005894628
0.0005894628
0.0005894628
0.0005894628
0.0005894628
0.0005894628
0.0005894628
0.0005894628
0.0005894628
0.0005894628
0.0005894628
0.0005894628
0.0005894628
0.0005894628
0.0005894628
0.0005894628
0.0005894628
0.0005894628
0.0005894628
0.0005894628
0.0005894628
0.0005894628
0.0005894628
0.0005894628
0.0005894628
0.0005894628
0.0005894628
0.0005894628
0.0005894628
0.0005894628
0.0005894628
0.0005894628
0.0005894628
0.0005894628
0.0005894628
0.0005894628
0.0005894628
0.0005894628
0.0005894628
0.0005894628
0.0005894628
0.0005894628
0.0005894628
0.0005894628
0.0005894628
0.0005894628
0.0005894628
0.0005894628
0.0005894628
0.0005894628
0.0005894628
0.0005894628
0.0005894628
0.0005894628
0.0005894628
0.0005894628
0.0005894628
0.0005894628
0.0005894628
0.0005894628
0.0005894628
0.0005894628
0.0005894628
0.0005894628
0.0005894628
0.0005894628
0.0005894628
0.0005894628
0.0005894628
0.0005894628
0.0005894628
0.0005894628
0.0005894628
0.0005894628
0.0005894628
0.0005894628
0.0005894628
0.0005894628
0.0005894628
0.0005894628
0.0005894628
0.0005894628
0.0005894628
0.0005894628
0.0005894628
0.0005894628
0.0005894628
0.0005894628
0.0005894628
0.0005894628
0.0005894628
0.0005894628
0.0005894628
0.0005894628
0.0005894628
0.0005894628
0.0005894628
0.0005894628
0.0005894628
0.0005894628
0.0005894628
0.0005894628
0.0005894628
0.0005894628
0.0005894628
0.0005894628
0.0005894628
0.0005894628
0.0005894628
0.0005894628
0.0005894628
0.0005894628
0.0005894628
0.0005894628
0.0005894628
0.0005894628
0.0005894628
0.0005894628
0.0005894628
0.0005894628
0.0005894628
0.0005894628
0.0005894628
0.0005894628
0.0005894628
0.0005894628
0.0005894628
0.0005894628
0.0005894628
0.0005894628
0.0005894628
0.0005894628
0.0005894628
0.0005894628
0.0005894628
0.0005894628
0.0005894628
0.0005894628
0.0005894628
0.0005894628
0.0005894628
0.0005894628
0.0005894628
0.0005894628
0.0005894628
0.0005894628
0.0005894628
0.0005894628
0.0005894628
0.0005894628
0.0005894628
0.0005894628
0.0005894628
0.0005894628
0.0005894628
0.0005894628
0.0005894628
0.0005894628
0.0005894628
0.0005894628
0.0005894628
0.0005894628
0.0005894628
0.0005894628
0.0005894628
0.0005894628
0.0005894628
0.0005894628
0.0005894628
0.0005894628
0.0005894628
0.0005894628
0.0005894628
0.0005894628
0.0005894628
0.0005894628
0.0005894628
0.0005894628
0.0005894628
0.0005894628
0.0005894628
0.0005894628
0.0005894628
0.0005894628
0.0005894628
0.0005894628
0.0005894628
0.0005894628
0.0005894628
0.0005894628
0.0005894628
0.0005894628
0.0005894628
0.0005894628
0.0005894628
0.0005894628
0.0005894628
0.0005894628
0.0005894628
0.0005894628
0.0005894628
0.0005894628
0.0005894628
0.0005894628
0.0005894628
0.0005894628
0.0005894628
0.0005894628
0.0005894628
0.0005894628
0.0005894628
0.0005894628
0.0005894628
0.0005894628
0.0005894628
0.0005894628
0.0005894628
0.0005894628
0.0005894628
0.0005894628
0.0005894628
0.0005894628
0.0005894628
0.0005894628
0.0005894628
0.0005894628
0.0005894628
0.0005894628
0.0005894628


SCALARS b FLOAT 1
LOOKUP_TABLE default
0.02357851
0.02357851
0.02357851
0.02357851
0.02357851
0.02357851
0.02357851
0.02357851
0.02357851
0.02357851
0.02357851
0.02357851
0.02357851
0.02357851
0.02357851
0.02357851
0.02357851
0.02357851
0.02357851
0.02357851
0.02357851
0.02357851
0.02357851
0.02357851
0.02357851
0.02357851
0.02357851
0.02357851
0.02357851
0.02357851
0.02357851
0.02357851
0.02357851
0.02357851
0.02357851
0.02357851
0.02357851
0.02357851
0.02357851
0.02357851
0.02357851
0.02357851
0.02357851
0.02357851
0.02357851
0.02357851
0.02357851
0.02357851
0.02357851
0.02357851
0.02357851
0.02357851
0.02357851
0.02357851
0.02357851
0.02357851
0.02357851
0.02357851
0.02357851
0.02357851
0.02357851
0.02357851
0.02357851
0.02357851
0.02357851
0.02357851
0.02357851
0.02357851
0.02357851
0.02357851
0.02357851
0.02357851
0.02357851
0.02357851
0.02357851
0.02357851
0.02357851
0.02357851
0.02357851
0.02357851
0.02357851
0.02357851
0.02357851
0.02357851
0.02357851
0.02357851
0.02357851
0.02357851
0.02357851
0.02357851
0.02357851
0.02357851
0.02357851
0.02357851
0.02357851
0.02357851
0.02357851
0.02357851
0.02357851
0.02357851
0.02357851
0.02357851
0.02357851
0.02357851
0.02357851
0.02357851
0.02357851
0.02357851
0.02357851
0.02357851
0.02357851
0.02357851
0.02357851
0.02357851
0.02357851
0.02357851
0.02357851
0.02357851
0.02357851
0.02357851
0.02357851
0.02357851
0.02357851
0.02357851
0.02357851
0.02357851
0.02357851
0.02357851
0.02357851
0.02357851
0.02357851
0.02357851
0.02357851
0.02357851
0.02357851
0.02357851
0.02357851
0.02357851
0.02357851
0.02357851
0.02357851
0.02357851
0.02357851
0.02357851
0.02357851
0.02357851
0.02357851
0.02357851
0.02357851
0.02357851
0.02357851
0.02357851
0.02357851
0.02357851
0.02357851
0.02357851
0.02357851
0.02357851
0.02357851
0.02357851
0.02357851
0.02357851
0.02357851
0.02357851
0.02357851
0.02357851
0.02357851
0.02357851
0.02357851
0.02357851
0.02357851
0.02357851
0.02357851
0.02357851
0.02357851
0.02357851
0.02357851
0.02357851
0.02357851
0.02357851
0.02357851
0.02357851
0.02357851
0.02357851
0.02357851
0.02357851
0.02357851
0.02357851
0.02357851
0.02357851
0.02357851
0.02357851
0.02357851
0.02357851
0.02357851
0.02357851
0.02357851
0.02357851
0.02357851
0.02357851
0.02357851
0.02357851
0.02357851
0.02357851
0.02357851
0.02357851
0.02357851
0.02357851
0.02357851
0.02357851
0.02357851
0.02357851
0.02357851
0.02357851
0.02357851
0.02357851
0.02357851
0.02357851
0.02357851
0.02357851
0.02357851
0.02357851
0.02357851
0.02357851
0.02357851
0.02357851
0.02357851
0.02357851
0.02357851
0.02357851
0.02357851
0.02357851
0.02357851
0.02357851
0.02357851
0.02357851
0.02357851
0.02357851
0.02357851
0.02357851
0.02357851
0.02357851
0.02357851
0.02357851
0.02357851
0.02357851
0.02357851
0.02357851
0.02357851
0.02357851
0.02357851
0.02357851
0.02357851
0.02357851
0.02357851
0.02357851
0.02357851
0.02357851
0.02357851
0.02357851
0.02357851
0.02357851
0.02357851
0.02357851
0.02357851
0.02357851
0.02357851
0.02357851
0.02357851
0.02357851
0.02357851
0.02357851
0.02357851
0.02357851
0.02357851
0.02357851
0.02357851
0.02357851
0.02357851
0.02357851
0.02357851
0.02357851
0.02357851
0.02357851
0.02357851
0.02357851
0.02357851
0.02357851
0.02357851
0.02357851
0.02357851
0.02357851
0.02357851
0.02357851
0.02357851
0.02357851
0.02357851
0.02357851
0.02357851
0.02357851
0.02357851
0.02357851
0.02357851
0.02357851
0.02357851
0.02357851
0.02357851
0.02357851
0.02357851
0.02357851
0.02357851
0.02357851
0.02357851
0.02357851
0.02357851
0.02357851
0.02357851
0.02357851
0.02357851
0.02357851
0.02357851
0.02357851
0.02357851
0.02357851
0.02357851
0.02357851
0.02357851
0.02357851
0.02357851
0.02357851
0.02357851
0.02357851
0.02357851
0.02357851
0.02357851
0.02357851
0.02357851
0.02357851
0.02357851
0.02357851
0.02357851
0.02357851
0.02357851
0.02357851
0.02357851
0.02357851
0.02357851
0.02357851
0.02357851
0.02357851


VECTORS d1 FLOAT
0 0.9999556 -0.009424638
-0.009138504 0.999915 -0.009298798
-0.01827466 0.9997909 -0.009172696
-0.02740769 0.9995834 -0.009046347
-0.03653686 0.9992925 -0.008919766
-0.04566139 0.9989183 -0.008792967
-0.05478052 0.9984608 -0.008665964
-0.0638935 0.9979202 -0.008538773
-0.07299958 0.9972965 -0.008411406
-0.08209799 0.9965898 -0.008283879
-0.09118799 0.9958003 -0.008156206
-0.1002688 0.994928 -0.008028402
-0.1093397 0.993973 -0.007900479
-0.1184 0.9929356 -0.007772454
-0.1274488 0.9918157 -0.00764434
-0.1364855 0.9906136 -0.007516151
-0.1455093 0.9893293 -0.007387902
-0.1545194 0.9879631 -0.007259607
-0.1635151 0.9865151 -0.00713128
-0.1724958 0.9849854 -0.007002935
-0.1814605 0.9833742 -0.006874586
-0.1904087 0.9816817 -0.006746248
-0.1993396 0.9799081 -0.006617935
-0.2082524 0.9780536 -0.00648966
-0.2171464 0.9761183 -0.006361438
-0.2260209 0.9741025 -0.006233283
-0.2348752 0.9720064 -0.006105209
-0.2437085 0.9698301 -0.005977229
-0.2525202 0.9675739 -0.005849357
-0.2613095 0.9652381 -0.005721608
-0.2700757 0.9628228 -0.005593996
-0.2788181 0.9603284 -0.005466533
-0.287536 0.9577549 -0.005339234
-0.2962287 0.9551028 -0.005212112
-0.3048955 0.9523722 -0.005085181
-0.3135356 0.9495635 -0.004958456
-0.3221484 0.9466768 -0.004831948
-0.3307333 0.9437125 -0.004705672
-0.3392894 0.9406709 -0.004579642
-0.3478162 0.9375522 -0.00445387
-0.3563128 0.9343567 -0.00432837
-0.3647788 0.9310847 -0.004203156
-0.3732133 0.9277366 -0.00407824
-0.3816157 0.9243126 -0.003953637
-0.3899853 0.9208131 -0.003829358
-0.3983215 0.9172384 -0.003705418
-0.4066236 0.9135888 -0.003581829
-0.4148909 0.9098646 -0.003458604
-0.4231228 0.9060662 -0.003335756
-0.4313186 0.9021939 -0.003213299
-0.4394777 0.8982482 -0.003091244
-0.4475994 0.8942292 -0.002969605
-0.4556831 0.8901375 -0.002848395
-0.4637281 0.8859734 -0.002727626
-0.4717338 0.8817372 -0.00260731
-0.4796996 0.8774293 -0.00248746
-0.4876248 0.8730501 -0.002368089
-0.4955088 0.8686 -0.002249209
-0.503351 0.8640794 -0.002130832
-0.5111508 0.8594887 -0.00201297
-0.5189076 0.8548283 -0.001895636
-0.5266207 0.8500985 -0.001778842
-0.5342895 0.8452999 -0.0016626
-0.5419135 0.8404329 -0.001546921
-0.549492 0.8354978 -0.001431818
-0.5570245 0.830495 -0.001317303
-0.5645103 0.8254252 -0.001203386
-0.5719489 0.8202885 -0.001090081
-0.5793397 0.8150856 -0.0009773973
-0.5866821 0.8098169 -0.0008653478
-0.5939756 0.8044827 -0.0007539436
-0.6012195 0.7990837 -0.0006431961
-0.6084134 0.7936201 -0.0005331164
-0.6155566 0.7880926 -0.0004237157
-0.6226486 0.7825015 -0.0003150052
-0.6296888 0.7768474 -0.0002069958
-0.6366768 0.7711308 -9.969853e-05
-0.6436119 0.765352 6.875848e-06
-0.6504936 0.7595117 0.0001127166
-0.6573215 0.7536103 0.0002178129
-0.6640949 0.7476482 0.0003221544
-0.6708133 0.7416261 0.0004257304
-0.6774763 0.7355444 0.0005285306
-0.6840832 0.7294037 0.0006305446
-0.6906337 0.7232044 0.0007317623
-0.6971272 0.716947 0.0008321735
-0.7035631 0.7106322 0.0009317681
-0.7099411 0.7042603 0.001030536
-0.7162606 0.697832 0.001128468
-0.7225211 0.6913478 0.001225554
-0.7287221 0.6848082 0.001321784
-0.7348632 0.6782138 0.001417148
-0.740944 0.6715652 0.001511638
-0.7469638 0.6648627 0.001605243
-0.7529224 0.6581072 0.001697955
-0.7588191 0.651299 0.001789764
-0.7646536 0.6444387 0.001880662
-0.7704255 0.637527 0.001970638
-0.7761343 0.6305643 0.002059685
-0.7817795 0.6235513 0.002147793
-0.7873607 0.6164886 0.002234955
-0.7928775 0.6093766 0.00232116
-0.7983295 0.6022161 0.002406401
-0.8037163 0.5950075 0.00249067
-0.8090374 0.5877516 0.002573957
-0.8142925 0.5804487 0.002656256
-0.8194811 0.5730997 0.002737557
-0.8246029 0.565705 0.002817853
-0.8296574 0.5582653 0.002897136
-0.8346444 0.5507811 0.002975398
-0.8395634 0.5432532 0.003052632
-0.844414 0.535682 0.00312883
-0.8491959 0.5280682 0.003203984
-0.8539087 0.5204125 0.003278088
-0.8585521 0.5127154 0.003351133
-0.8631257 0.5049776 0.003423114
-0.8676291 0.4971997 0.003494022
-0.8720621 0.4893822 0.003563851
-0.8764243 0.481526 0.003632595
-0.8807153 0.4736315 0.003700245
-0.8849349 0.4656995 0.003766797
-0.8890827 0.4577305 0.003832243
-0.8931585 0.4497252 0.003896578
-0.8971618 0.4416843 0.003959794
-0.9010924 0.4336084 0.004021886
-0.9049501 0.4254981 0.004082847
-0.9087345 0.4173541 0.004142673
-0.9124453 0.409177 0.004201356
-0.9160824 0.4009676 0.004258892
-0.9196452 0.3927264 0.004315275
-0.9231338 0.3844541 0.004370499
-0.9265477 0.3761514 0.004424559
-0.9298867 0.3678189 0.00447745
-0.9331505 0.3594573 0.004529166
-0.936339 0.3510673 0.004579704
-0.9394519 0.3426496 0.004629057
-0.9424889 0.3342048 0.004677222
-0.9454498 0.3257335 0.004724192
-0.9483345 0.3172365 0.004769965
-0.9511426 0.3087144 0.004814536
-0.953874 0.300168 0.004857899
-0.9565285 0.2915978 0.004900052
-0.9591058 0.2830046 0.00494099
-0.9616058 0.2743891 0.004980709
-0.9640284 0.2657519 0.005019206
-0.9663732 0.2570937 0.005056476
-0.9686402 0.2484153 0.005092516
-0.9708292 0.2397172 0.005127323
-0.97294 0.2310002 0.005160893
-0.9749725 0.222265 0.005193223
-0.9769264 0.2135123 0.005224311
-0.9788017 0.2047427 0.005254152
-0.9805983 0.1959569 0.005282744
-0.9823159 0.1871558 0.005310085
-0.9839545 0.1783398 0.005336172
-0.9855139 0.1695098 0.005361002
-0.9869941 0.1606664 0.005384573
-0.9883948 0.1518104 0.005406882
-0.9897161 0.1429424 0.005427929
-0.9909578 0.1340631 0.005447709
-0.9921198 0.1251733 0.005466223
-0.9932021 0.1162736 0.005483467
-0.9942045 0.1073648 0.005499441
-0.995127 0.09844744 0.005514142
-0.9959695 0.08952237 0.005527569
-0.9967319 0.08059024 0.005539722
-0.9974143 0.07165177 0.005550599
-0.9980165 0.06270765 0.005560198
-0.9985384 0.05375859 0.005568519
-0.9989802 0.0448053 0.005575562
-0.9993417 0.03584847 0.005581325
-0.9996228 0.02688883 0.005585808
-0.9998237 0.01792706 0.00558901
-0.9999442 0.008963883 0.005590931
-0.9999844 -4.336809e-19 0.005591572
-0.9999442 -0.008963883 0.005590931
-0.9998237 -0.01792706 0.00558901
-0.9996228 -0.02688883 0.005585808
-0.9993417 -0.03584847 0.005581325
-0.9989802 -0.0448053 0.005575562
-0.9985384 -0.05375859 0.005568519
-0.9980165 -0.06270765 0.005560198
-0.9974143 -0.07165177 0.005550599
-0.9967319 -0.08059024 0.005539722
-0.9959695 -0.08952237 0.005527569
-0.995127 -0.09844744 0.005514142