# vtk DataFile Version 2.0
Written badly by Kevin Korner
ASCII
DATASET POLYDATA
POINTS 350 FLOAT
0 0 0
0.00286533 0 0
0.005730308 6.715207e-06 -4.436827e-05
0.008594375 1.848643e-05 -0.0001286035
0.01145718 3.385754e-05 -0.000247885
0.01431857 5.158264e-05 -0.0003969353
0.01717862 7.064098e-05 -0.0005697857
0.02003761 9.0268e-05 -0.0007593694
0.02289605 0.000110022 -0.0009569409
0.02575464 0.0001298895 -0.001152318
0.02861398 0.0001502832 -0.001336354
0.03147443 0.0001719007 -0.001502108
0.03433613 0.0001956273 -0.00164425
0.03719906 0.0002224886 -0.001758505
0.04006302 0.0002536231 -0.001841321
0.04292771 0.0002902627 -0.001889687
0.04579268 0.000333718 -0.001901013
0.04865741 0.0003853651 -0.001873056
0.05152125 0.0004466345 -0.001803874
0.05438347 0.0005190007 -0.001691788
0.05724327 0.0006039724 -0.001535357
0.06009975 0.0007030834 -0.001333359
0.06295197 0.0008178841 -0.001084776
0.0657989 0.0009499328 -0.0007887831
0.0686395 0.001100788 -0.0004447356
0.07147264 0.001272 -5.216341e-05
0.07429717 0.001465106 0.000389238
0.07711192 0.001681619 0.0008796143
0.07991565 0.001923025 0.001418959
0.08270716 0.002190775 0.00200712
0.08548518 0.00248628 0.002643807
0.08824848 0.002810902 0.003328595
0.09099579 0.003165957 0.004060934
0.09372587 0.003552701 0.004840153
0.09643749 0.003972332 0.00566547
0.09912942 0.004425984 0.006535993
0.1018005 0.004914725 0.007450734
0.1044495 0.005439553 0.008408611
0.1070752 0.006001395 0.009408455
0.1096767 0.006601103 0.01044902
0.1122528 0.007239455 0.01152899
0.1148025 0.007917152 0.01264699
0.1173248 0.008634821 0.01380157
0.1198188 0.00939301 0.01499125
0.1222836 0.01019219 0.0162145
0.1247183 0.01103276 0.01746974
0.1271222 0.01191505 0.01875539
0.1294946 0.01283929 0.02006983
0.1318347 0.01380567 0.02141141
0.1341421 0.0148143 0.02277849
0.1364161 0.01586522 0.02416942
0.1386562 0.0169584 0.02558255
0.140862 0.01809376 0.02701622
0.1430332 0.01927114 0.02846882
0.1451693 0.02049035 0.0299387
0.1472702 0.02175112 0.03142428
0.1493355 0.02305315 0.03292397
0.1513652 0.02439608 0.03443623
0.1533592 0.0257795 0.03595953
0.1553173 0.02720298 0.03749238
0.1572396 0.02866602 0.03903333
0.159126 0.03016812 0.04058096
0.1609767 0.03170872 0.0421339
0.1627917 0.03328724 0.04369082
0.1645713 0.03490308 0.04525042
0.1663156 0.03655561 0.04681145
0.1680247 0.03824417 0.04837272
0.1696991 0.03996811 0.04993306
0.1713389 0.04172673 0.05149137
0.1729445 0.04351935 0.05304657
0.1745163 0.04534525 0.05459765
0.1760545 0.04720372 0.05614365
0.1775596 0.04909404 0.05768362
0.1790319 0.05101548 0.05921669
0.180472 0.05296732 0.06074202
0.1818802 0.05494883 0.06225882
0.183257 0.05695928 0.06376634
0.1846029 0.05899794 0.06526387
0.1859183 0.0610641 0.06675075
0.1872037 0.06315704 0.06822634
0.1884597 0.06527604 0.06969007
0.1896867 0.06742041 0.07114137
0.1908852 0.06958946 0.07257975
0.1920558 0.07178249 0.07400472
0.1931989 0.07399884 0.07541583
0.194315 0.07623783 0.07681268
0.1954048 0.07849882 0.07819489
0.1964686 0.08078116 0.07956211
0.197507 0.08308423 0.08091402
0.1985206 0.08540741 0.08225033
0.1995097 0.08775008 0.08357077
0.200475 0.09011167 0.0848751
0.2014168 0.0924916 0.0861631
0.2023358 0.09488929 0.08743459
0.2032324 0.0973042 0.08868938
0.204107 0.09973579 0.08992733
0.2049602 0.1021835 0.0911483
0.2057923 0.1046469 0.09235218
0.2066039 0.1071255 0.09353887
0.2073955 0.1096187 0.09470829
0.2081674 0.1121261 0.09586037
0.20892 0.1146472 0.09699507
0.2096539 0.1171816 0.09811233
0.2103694 0.1197289 0.09921215
0.211067 0.1222886 0.1002945
0.211747 0.1248603 0.1013594
0.2124098 0.1274436 0.1024068
0.2130558 0.1300382 0.1034367
0.2136854 0.1326437 0.1044492
0.214299 0.1352597 0.1054443
0.2148969 0.1378859 0.1064221
0.2154794 0.1405218 0.1073826
0.2160469 0.1431673 0.1083257
0.2165997 0.1458219 0.1092517
0.2171381 0.1484854 0.1101605
0.2176625 0.1511575 0.1110523
0.2181732 0.1538378 0.111927
0.2186704 0.1565261 0.1127848
0.2191544 0.1592222 0.1136258
0.2196255 0.1619257 0.1144499
0.220084 0.1646364 0.1152574
0.2205302 0.167354 0.1160482
0.2209642 0.1700784 0.1168225
0.2213864 0.1728092 0.1175804
0.221797 0.1755463 0.1183219
0.2221962 0.1782895 0.1190471
0.2225843 0.1810384 0.1197562
0.2229614 0.183793 0.1204491
0.2233277 0.186553 0.1211261
0.2236836 0.1893183 0.1217871
0.2240291 0.1920885 0.1224323
0.2243645 0.1948637 0.1230618
0.2246899 0.1976435 0.1236756
0.2250055 0.2004278 0.1242739
0.2253115 0.2032165 0.1248567
0.2256081 0.2060094 0.1254241
0.2258954 0.2088064 0.1259761
0.2261736 0.2116072 0.126513
0.2264428 0.2144117 0.1270347
0.2267032 0.2172198 0.1275413
0.2269549 0.2200314 0.128033
0.227198 0.2228463 0.1285097
0.2274327 0.2256644 0.1289716
0.2276591 0.2284856 0.1294187
0.2278773 0.2313097 0.1298511
0.2280874 0.2341366 0.1302689
0.2282895 0.2369662 0.1306721
0.2284838 0.2397984 0.1310608
0.2286702 0.2426331 0.1314351
0.2288491 0.2454701 0.131795
0.2290203 0.2483093 0.1321406
0.229184 0.2511507 0.1324719
0.2293403 0.2539942 0.132789
0.2294893 0.2568395 0.133092
0.229631 0.2596867 0.1333808
0.2297655 0.2625357 0.1336556
0.2298929 0.2653863 0.1339163
0.2300133 0.2682384 0.1341631
0.2301266 0.271092 0.134396
0.230233 0.273947 0.1346149
0.2303324 0.2768032 0.13482
0.2304251 0.2796607 0.1350113
0.2305109 0.2825192 0.1351888
0.23059 0.2853788 0.1353525
0.2306623 0.2882393 0.1355025
0.230728 0.2911006 0.1356387
0.230787 0.2939627 0.1357613
0.2308394 0.2968255 0.1358702
0.2308852 0.2996889 0.1359655
0.2309244 0.3025528 0.1360471
0.230957 0.3054171 0.1361151
0.2309831 0.3082818 0.1361695
0.2310026 0.3111468 0.1362102
0.2310157 0.3140119 0.1362374
0.2310222 0.3168772 0.136251
0.2310222 0.3197426 0.136251
0.2310157 0.3226078 0.1362374
0.2310026 0.325473 0.1362102
0.2309831 0.328338 0.1361695
0.230957 0.3312027 0.1361151
0.2309244 0.334067 0.1360471
0.2308852 0.3369309 0.1359655
0.2308394 0.3397943 0.1358702
0.230787 0.3426571 0.1357613
0.230728 0.3455192 0.1356387
0.2306623 0.3483805 0.1355025
0.23059 0.351241 0.1353525
0.2305109 0.3541005 0.1351888
0.2304251 0.3569591 0.1350113
0.2303324 0.3598165 0.13482
0.230233 0.3626728 0.1346149
0.2301266 0.3655277 0.134396
0.2300133 0.3683813 0.1341631
0.2298929 0.3712335 0.1339163
0.2297655 0.3740841 0.1336556
0.229631 0.376933 0.1333808
0.2294893 0.3797802 0.133092
0.2293403 0.3826256 0.132789
0.229184 0.3854691 0.1324719
0.2290203 0.3883104 0.1321406
0.2288491 0.3911497 0.131795
0.2286702 0.3939867 0.1314351
0.2284838 0.3968214 0.1310608
0.2282895 0.3996535 0.1306721
0.2280874 0.4024832 0.1302689
0.2278773 0.4053101 0.1298511
0.2276591 0.4081342 0.1294187
0.2274327 0.4109553 0.1289716
0.227198 0.4137734 0.1285097
0.2269549 0.4165883 0.128033
0.2267032 0.4193999 0.1275413
0.2264428 0.4222081 0.1270347
0.2261736 0.4250126 0.126513
0.2258954 0.4278134 0.1259761
0.2256081 0.4306103 0.1254241
0.2253115 0.4334032 0.1248567
0.2250055 0.4361919 0.1242739
0.2246899 0.4389763 0.1236756
0.2243645 0.4417561 0.1230618
0.2240291 0.4445312 0.1224323
0.2236836 0.4473015 0.1217871
0.2233277 0.4500667 0.1211261
0.2229614 0.4528268 0.1204491
0.2225843 0.4555813 0.1197562
0.2221962 0.4583303 0.1190471
0.221797 0.4610734 0.1183219
0.2213864 0.4638105 0.1175804
0.2209642 0.4665414 0.1168225
0.2205302 0.4692657 0.1160482
0.220084 0.4719834 0.1152574
0.2196255 0.4746941 0.1144499
0.2191544 0.4773976 0.1136258
0.2186704 0.4800936 0.1127848
0.2181732 0.482782 0.111927
0.2176625 0.4854623 0.1110523
0.2171381 0.4881344 0.1101605
0.2165997 0.4907978 0.1092517
0.2160469 0.4934525 0.1083257
0.2154794 0.4960979 0.1073826
0.2148969 0.4987339 0.1064221
0.214299 0.5013601 0.1054443
0.2136854 0.5039761 0.1044492
0.2130558 0.5065815 0.1034367
0.2124098 0.5091761 0.1024068
0.211747 0.5117595 0.1013594
0.211067 0.5143312 0.1002945
0.2103694 0.5168909 0.09921215
0.2096539 0.5194382 0.09811233
0.20892 0.5219726 0.09699507
0.2081674 0.5244937 0.09586037
0.2073955 0.5270011 0.09470829
0.2066039 0.5294943 0.09353887
0.2057923 0.5319728 0.09235218
0.2049602 0.5344362 0.0911483
0.204107 0.536884 0.08992733
0.2032324 0.5393156 0.08868938
0.2023358 0.5417305 0.08743459
0.2014168 0.5441282 0.0861631
0.200475 0.5465081 0.0848751
0.1995097 0.5488697 0.08357077
0.1985206 0.5512124 0.08225033
0.197507 0.5535355 0.08091402
0.1964686 0.5558386 0.07956211
0.1954048 0.558121 0.07819489
0.194315 0.5603819 0.07681268
0.1931989 0.5626209 0.07541583
0.1920558 0.5648373 0.07400472
0.1908852 0.5670303 0.07257975
0.1896867 0.5691994 0.07114137
0.1884597 0.5713437 0.06969007
0.1872037 0.5734627 0.06822634
0.1859183 0.5755557 0.06675075
0.1846029 0.5776218 0.06526387
0.183257 0.5796605 0.06376634
0.1818802 0.5816709 0.06225882
0.180472 0.5836524 0.06074202
0.1790319 0.5856043 0.05921669
0.1775596 0.5875257 0.05768362
0.1760545 0.5894161 0.05614365
0.1745163 0.5912745 0.05459765
0.1729445 0.5931004 0.05304657
0.1713389 0.594893 0.05149137
0.1696991 0.5966517 0.04993306
0.1680247 0.5983756 0.04837272
0.1663156 0.6000642 0.04681145
0.1645713 0.6017167 0.04525042
0.1627917 0.6033325 0.04369082
0.1609767 0.6049111 0.0421339
0.159126 0.6064517 0.04058096
0.1572396 0.6079538 0.03903333
0.1553173 0.6094168 0.03749238
0.1533592 0.6108403 0.03595953
0.1513652 0.6122237 0.03443623
0.1493355 0.6135666 0.03292397
0.1472702 0.6148686 0.03142428
0.1451693 0.6161294 0.0299387
0.1430332 0.6173486 0.02846882
0.140862 0.618526 0.02701622
0.1386562 0.6196614 0.02558255
0.1364161 0.6207545 0.02416942
0.1341421 0.6218055 0.02277849
0.1318347 0.6228141 0.02141141
0.1294946 0.6237805 0.02006983
0.1271222 0.6247047 0.01875539
0.1247183 0.625587 0.01746974
0.1222836 0.6264276 0.0162145
0.1198188 0.6272268 0.01499125
0.1173248 0.627985 0.01380157
0.1148025 0.6287026 0.01264699
0.1122528 0.6293803 0.01152899
0.1096767 0.6300187 0.01044902
0.1070752 0.6306184 0.009408455
0.1044495 0.6311802 0.008408611
0.1018005 0.631705 0.007450734
0.09912942 0.6321938 0.006535993
0.09643749 0.6326474 0.00566547
0.09372587 0.6330671 0.004840153
0.09099579 0.6334538 0.004060934
0.08824848 0.6338089 0.003328595
0.08548518 0.6341335 0.002643807
0.08270716 0.634429 0.00200712
0.07991565 0.6346967 0.001418959
0.07711192 0.6349382 0.0008796143
0.07429717 0.6351547 0.000389238
0.07147264 0.6353478 -5.21634e-05
0.0686395 0.635519 -0.0004447356
0.0657989 0.6356698 -0.0007887831
0.06295197 0.6358019 -0.001084776
0.06009975 0.6359167 -0.001333359
0.05724327 0.6360158 -0.001535357
0.05438347 0.6361008 -0.001691788
0.05152125 0.6361731 -0.001803874
0.04865741 0.6362344 -0.001873056
0.04579268 0.6362861 -0.001901013
0.04292771 0.6363295 -0.001889687
0.04006302 0.6363661 -0.001841321
0.03719906 0.6363973 -0.001758505
0.03433613 0.6364241 -0.00164425
0.03147443 0.6364479 -0.001502108
0.02861398 0.6364695 -0.001336354
0.02575464 0.6364899 -0.001152318
0.02289605 0.6365098 -0.0009569409
0.02003761 0.6365295 -0.0007593694
0.01717862 0.6365491 -0.0005697857
0.01431857 0.6365682 -0.0003969353
0.01145718 0.6365859 -0.000247885
0.008594375 0.6366013 -0.0001286035
0.005730308 0.6366131 -4.436827e-05
0.00286533 0.6366198 0
0 0.6366198 0

LINES 349 1047
2 0 1
2 1 2
2 2 3
2 3 4
2 4 5
2 5 6
2 6 7
2 7 8
2 8 9
2 9 10
2 10 11
2 11 12
2 12 13
2 13 14
2 14 15
2 15 16
2 16 17
2 17 18
2 18 19
2 19 20
2 20 21
2 21 22
2 22 23
2 23 24
2 24 25
2 25 26
2 26 27
2 27 28
2 28 29
2 29 30
2 30 31
2 31 32
2 32 33
2 33 34
2 34 35
2 35 36
2 36 37
2 37 38
2 38 39
2 39 40
2 40 41
2 41 42
2 42 43
2 43 44
2 44 45
2 45 46
2 46 47
2 47 48
2 48 49
2 49 50
2 50 51
2 51 52
2 52 53
2 53 54
2 54 55
2 55 56
2 56 57
2 57 58
2 58 59
2 59 60
2 60 61
2 61 62
2 62 63
2 63 64
2 64 65
2 65 66
2 66 67
2 67 68
2 68 69
2 69 70
2 70 71
2 71 72
2 72 73
2 73 74
2 74 75
2 75 76
2 76 77
2 77 78
2 78 79
2 79 80
2 80 81
2 81 82
2 82 83
2 83 84
2 84 85
2 85 86
2 86 87
2 87 88
2 88 89
2 89 90
2 90 91
2 91 92
2 92 93
2 93 94
2 94 95
2 95 96
2 96 97
2 97 98
2 98 99
2 99 100
2 100 101
2 101 102
2 102 103
2 103 104
2 104 105
2 105 106
2 106 107
2 107 108
2 108 109
2 109 110
2 110 111
2 111 112
2 112 113
2 113 114
2 114 115
2 115 116
2 116 117
2 117 118
2 118 119
2 119 120
2 120 121
2 121 122
2 122 123
2 123 124
2 124 125
2 125 126
2 126 127
2 127 128
2 128 129
2 129 130
2 130 131
2 131 132
2 132 133
2 133 134
2 134 135
2 135 136
2 136 137
2 137 138
2 138 139
2 139 140
2 140 141
2 141 142
2 142 143
2 143 144
2 144 145
2 145 146
2 146 147
2 147 148
2 148 149
2 149 150
2 150 151
2 151 152
2 152 153
2 153 154
2 154 155
2 155 156
2 156 157
2 157 158
2 158 159
2 159 160
2 160 161
2 161 162
2 162 163
2 163 164
2 164 165
2 165 166
2 166 167
2 167 168
2 168 169
2 169 170
2 170 171
2 171 172
2 172 173
2 173 174
2 174 175
2 175 176
2 176 177
2 177 178
2 178 179
2 179 180
2 180 181
2 181 182
2 182 183
2 183 184
2 184 185
2 185 186
2 186 187
2 187 188
2 188 189
2 189 190
2 190 191
2 191 192
2 192 193
2 193 194
2 194 195
2 195 196
2 196 197
2 197 198
2 198 199
2 199 200
2 200 201
2 201 202
2 202 203
2 203 204
2 204 205
2 205 206
2 206 207
2 207 208
2 208 209
2 209 210
2 210 211
2 211 212
2 212 213
2 213 214
2 214 215
2 215 216
2 216 217
2 217 218
2 218 219
2 219 220
2 220 221
2 221 222
2 222 223
2 223 224
2 224 225
2 225 226
2 226 227
2 227 228
2 228 229
2 229 230
2 230 231
2 231 232
2 232 233
2 233 234
2 234 235
2 235 236
2 236 237
2 237 238
2 238 239
2 239 240
2 240 241
2 241 242
2 242 243
2 243 244
2 244 245
2 245 246
2 246 247
2 247 248
2 248 249
2 249 250
2 250 251
2 251 252
2 252 253
2 253 254
2 254 255
2 255 256
2 256 257
2 257 258
2 258 259
2 259 260
2 260 261
2 261 262
2 262 263
2 263 264
2 264 265
2 265 266
2 266 267
2 267 268
2 268 269
2 269 270
2 270 271
2 271 272
2 272 273
2 273 274
2 274 275
2 275 276
2 276 277
2 277 278
2 278 279
2 279 280
2 280 281
2 281 282
2 282 283
2 283 284
2 284 285
2 285 286
2 286 287
2 287 288
2 288 289
2 289 290
2 290 291
2 291 292
2 292 293
2 293 294
2 294 295
2 295 296
2 296 297
2 297 298
2 298 299
2 299 300
2 300 301
2 301 302
2 302 303
2 303 304
2 304 305
2 305 306
2 306 307
2 307 308
2 308 309
2 309 310
2 310 311
2 311 312
2 312 313
2 313 314
2 314 315
2 315 316
2 316 317
2 317 318
2 318 319
2 319 320
2 320 321
2 321 322
2 322 323
2 323 324
2 324 325
2 325 326
2 326 327
2 327 328
2 328 329
2 329 330
2 330 331
2 331 332
2 332 333
2 333 334
2 334 335
2 335 336
2 336 337
2 337 338
2 338 339
2 339 340
2 340 341
2 341 342
2 342 343
2 343 344
2 344 345
2 345 346
2 346 347
2 347 348
2 348 349


POINT_DATA 350
SCALARS a FLOAT 1
LOOKUP_TABLE default
0.0005894628
0.0005894628
0.0005894628
0.0005894628
0.0005894628
0.0005894628
0.0005894628
0.0005894628
0.0005894628
0.0005894628
0.0005894628
0.0005894628
0.0005894628
0.0005894628
0.0005894628
0.0005894628
0.0005894628
0.0005894628
0.0005894628
0.0005894628
0.0005894628
0.0005894628
0.0005894628
0.0005894628
0.0005894628
0.0005894628
0.0005894628
0.0005894628
0.0005894628
0.0005894628
0.0005894628
0.0005894628
0.0005894628
0.0005894628
0.0005894628
0.0005894628
0.0005894628
0.0005894628
0.0005894628
0.0005894628
0.0005894628
0.0005894628
0.0005894628
0.0005894628
0.0005894628
0.0005894628
0.0005894628
0.0005894628
0.0005894628
0.0005894628
0.0005894628
0.0005894628
0.0005894628
0.0005894628
0.0005894628
0.0005894628
0.0005894628
0.0005894628
0.0005894628
0.0005894628
0.0005894628
0.0005894628
0.0005894628
0.0005894628
0.0005894628
0.0005894628
0.0005894628
0.0005894628
0.0005894628
0.0005894628
0.0005894628
0.0005894628
0.0005894628
0.0005894628
0.0005894628
0.0005894628
0.0005894628
0.0005894628
0.0005894628
0.0005894628
0.0005894628
0.0005894628
0.0005894628
0.0005894628
0.0005894628
0.0005894628
0.0005894628
0.0005894628
0.0005894628
0.0005894628
0.0005894628
0.0005894628
0.0005894628
0.0005894628
0.0005894628
0.0005894628
0.0005894628
0.0005894628
0.0005894628
0.0005894628
0.0005894628
0.0005894628
0.0005894628
0.0005894628
0.0005894628
0.0005894628
0.0005894628
0.0005894628
0.0005894628
0.0005894628
0.0005894628
0.0005894628
0.0005894628
0.0005894628
0.0005894628
0.0005894628
0.0005894628
0.0005894628
0.0005894628
0.0005894628
0.0005894628
0.0005894628
0.0005894628
0.0005894628
0.0005894628
0.0005894628
0.0005894628
0.0005894628
0.0005894628
0.0005894628
0.0005894628
0.0005894628
0.0005894628
0.0005894628
0.0005894628
0.0005894628
0.0005894628
0.0005894628
0.0005894628
0.0005894628
0.0005894628
0.0005894628
0.0005894628
0.0005894628
0.0005894628
0.0005894628
0.0005894628
0.0005894628
0.0005894628
0.0005894628
0.0005894628
0.0005894628
0.0005894628
0.0005894628
0.0005894628
0.0005894628
0.0005894628
0.0005894628
0.0005894628
0.0005894628
0.0005894628
0.0005894628
0.0005894628
0.0005894628
0.0005894628
0.0005894628
0.0005894628
0.0005894628
0.0005894628
0.0005894628
0.0005894628
0.0005894628
0.0005894628
0.0005894628
0.0005894628
0.0005894628
0.0005894628
0.0005894628
0.0005894628
0.0005894628
0.0005894628
0.0005894628
0.0005894628
0.0005894628
0.0005894628
0.0005894628
0.0005894628
0.0005894628
0.0005894628
0.0005894628
0.0005894628
0.0005894628
0.0005894628
0.0005894628
0.0005894628
0.0005894628
0.0005894628
0.0005894628
0.0005894628
0.0005894628
0.0005894628
0.0005894628
0.0005894628
0.0005894628
0.0005894628
0.0005894628
0.0005894628
0.0005894628
0.0005894628
0.0005894628
0.0005894628
0.0005894628
0.0005894628
0.0005894628
0.0005894628
0.0005894628
0.0005894628
0.0005894628
0.0005894628
0.0005894628
0.0005894628
0.0005894628
0.0005894628
0.0005894628
0.0005894628
0.0005894628
0.0005894628
0.0005894628
0.0005894628
0.0005894628
0.0005894628
0.0005894628
0.0005894628
0.0005894628
0.0005894628
0.0005894628
0.0005894628
0.0005894628
0.0005894628
0.0005894628
0.0005894628
0.0005894628
0.0005894628
0.0005894628
0.0005894628
0.0005894628
0.0005894628
0.0005894628
0.0005894628
0.0005894628
0.0005894628
0.0005894628
0.0005894628
0.0005894628
0.0005894628
0.0005894628
0.0005894628
0.0005894628
0.0005894628
0.0005894628
0.0005894628
0.0005894628
0.0005894628
0.0005894628
0.0005894628
0.0005894628
0.0005894628
0.0005894628
0.0005894628
0.0005894628
0.0005894628
0.0005894628
0.0005894628
0.0005894628
0.0005894628
0.0005894628
0.0005894628
0.0005894628
0.0005894628
0.0005894628
0.0005894628
0.0005894628
0.0005894628
0.0005894628
0.0005894628
0.0005894628
0.0005894628
0.0005894628
0.0005894628
0.0005894628
0.0005894628
0.0005894628
0.0005894628
0.0005894628
0.0005894628
0.0005894628
0.0005894628
0.0005894628
0.0005894628
0.0005894628
0.0005894628
0.0005894628
0.0005894628
0.0005894628
0.0005894628
0.0005894628
0.0005894628
0.0005894628
0.0005894628
0.0005894628
0.0005894628
0.0005894628
0.0005894628
0.0005894628
0.0005894628
0.0005894628
0.0005894628
0.0005894628
0.0005894628
0.0005894628
0.0005894628
0.0005894628
0.0005894628
0.0005894628
0.0005894628
0.0005894628
0.0005894628
0.0005894628
0.0005894628
0.0005894628
0.0005894628
0.0005894628
0.0005894628
0.0005894628
0.0005894628
0.0005894628
0.0005894628
0.0005894628
0.0005894628
0.0005894628
0.0005894628
0.0005894628
0.0005894628
0.0005894628
0.0005894628
0.0005894628
0.0005894628
0.0005894628
0.0005894628
0.0005894628


SCALARS b FLOAT 1
LOOKUP_TABLE default
0.02357851
0.02357851
0.02357851
0.02357851
0.02357851
0.02357851
0.02357851
0.02357851
0.02357851
0.02357851
0.02357851
0.02357851
0.02357851
0.02357851
0.02357851
0.02357851
0.02357851
0.02357851
0.02357851
0.02357851
0.02357851
0.02357851
0.02357851
0.02357851
0.02357851
0.02357851
0.02357851
0.02357851
0.02357851
0.02357851
0.02357851
0.02357851
0.02357851
0.02357851
0.02357851
0.02357851
0.02357851
0.02357851
0.02357851
0.02357851
0.02357851
0.02357851
0.02357851
0.02357851
0.02357851
0.02357851
0.02357851
0.02357851
0.02357851
0.02357851
0.02357851
0.02357851
0.02357851
0.02357851
0.02357851
0.02357851
0.02357851
0.02357851
0.02357851
0.02357851
0.02357851
0.02357851
0.02357851
0.02357851
0.02357851
0.02357851
0.02357851
0.02357851
0.02357851
0.02357851
0.02357851
0.02357851
0.02357851
0.02357851
0.02357851
0.02357851
0.02357851
0.02357851
0.02357851
0.02357851
0.02357851
0.02357851
0.02357851
0.02357851
0.02357851
0.02357851
0.02357851
0.02357851
0.02357851
0.02357851
0.02357851
0.02357851
0.02357851
0.02357851
0.02357851
0.02357851
0.02357851
0.02357851
0.02357851
0.02357851
0.02357851
0.02357851
0.02357851
0.02357851
0.02357851
0.02357851
0.02357851
0.02357851
0.02357851
0.02357851
0.02357851
0.02357851
0.02357851
0.02357851
0.02357851
0.02357851
0.02357851
0.02357851
0.02357851
0.02357851
0.02357851
0.02357851
0.02357851
0.02357851
0.02357851
0.02357851
0.02357851
0.02357851
0.02357851
0.02357851
0.02357851
0.02357851
0.02357851
0.02357851
0.02357851
0.02357851
0.02357851
0.02357851
0.02357851
0.02357851
0.02357851
0.02357851
0.02357851
0.02357851
0.02357851
0.02357851
0.02357851
0.02357851
0.02357851
0.02357851
0.02357851
0.02357851
0.02357851
0.02357851
0.02357851
0.02357851
0.02357851
0.02357851
0.02357851
0.02357851
0.02357851
0.02357851
0.02357851
0.02357851
0.02357851
0.02357851
0.02357851
0.02357851
0.02357851
0.02357851
0.02357851
0.02357851
0.02357851
0.02357851
0.02357851
0.02357851
0.02357851
0.02357851
0.02357851
0.02357851
0.02357851
0.02357851
0.02357851
0.02357851
0.02357851
0.02357851
0.02357851
0.02357851
0.02357851
0.02357851
0.02357851
0.02357851
0.02357851
0.02357851
0.02357851
0.02357851
0.02357851
0.02357851
0.02357851
0.02357851
0.02357851
0.02357851
0.02357851
0.02357851
0.02357851
0.02357851
0.02357851
0.02357851
0.02357851
0.02357851
0.02357851
0.02357851
0.02357851
0.02357851
0.02357851
0.02357851
0.02357851
0.02357851
0.02357851
0.02357851
0.02357851
0.02357851
0.02357851
0.02357851
0.02357851
0.02357851
0.02357851
0.02357851
0.02357851
0.02357851
0.02357851
0.02357851
0.02357851
0.02357851
0.02357851
0.02357851
0.02357851
0.02357851
0.02357851
0.02357851
0.02357851
0.02357851
0.02357851
0.02357851
0.02357851
0.02357851
0.02357851
0.02357851
0.02357851
0.02357851
0.02357851
0.02357851
0.02357851
0.02357851
0.02357851
0.02357851
0.02357851
0.02357851
0.02357851
0.02357851
0.02357851
0.02357851
0.02357851
0.02357851
0.02357851
0.02357851
0.02357851
0.02357851
0.02357851
0.02357851
0.02357851
0.02357851
0.02357851
0.02357851
0.02357851
0.02357851
0.02357851
0.02357851
0.02357851
0.02357851
0.02357851
0.02357851
0.02357851
0.02357851
0.02357851
0.02357851
0.02357851
0.02357851
0.02357851
0.02357851
0.02357851
0.02357851
0.02357851
0.02357851
0.02357851
0.02357851
0.02357851
0.02357851
0.02357851
0.02357851
0.02357851
0.02357851
0.02357851
0.02357851
0.02357851
0.02357851
0.02357851
0.02357851
0.02357851
0.02357851
0.02357851
0.02357851
0.02357851
0.02357851
0.02357851
0.02357851
0.02357851
0.02357851
0.02357851
0.02357851
0.02357851
0.02357851
0.02357851
0.02357851
0.02357851
0.02357851
0.02357851
0.02357851
0.02357851
0.02357851
0.02357851
0.02357851
0.02357851
0.02357851
0.02357851
0.02357851
0.02357851
0.02357851
0.02357851
0.02357851
0.02357851
0.02357851
0.02357851
0.02357851
0.02357851
0.02357851
0.02357851
0.02357851
0.02357851
0.02357851


VECTORS d1 FLOAT
0 -0.1595366 0.987192
0.01565927 -0.1354583 0.9906593
0.02967286 -0.111482 0.9933234
0.04193944 -0.08765863 0.9952673
0.05230839 -0.06403288 0.9965759
0.06054612 -0.04064154 0.9973377
0.06627579 -0.01750533 0.9976478
0.0689159 0.00540217 0.9976078
0.06796575 0.02822005 0.9972885
0.06378322 0.05112981 0.9966531
0.05713139 0.07419372 0.995606
0.04856792 0.09739721 0.9940598
0.03845433 0.1207027 0.9919436
0.0270383 0.1440667 0.9891985
0.01450172 0.1674443 0.9857749
0.0009865116 0.1907904 0.9816303
-0.01339116 0.2140608 0.9767286
-0.02853241 0.2372113 0.971039
-0.04435037 0.2601989 0.9645359
-0.06076691 0.282981 0.9571986
-0.0777103 0.3055158 0.9490106
-0.09511376 0.3277628 0.9399601
-0.1129143 0.3496819 0.9300392
-0.1310522 0.3712348 0.9192443
-0.1494702 0.3923841 0.9075755
-0.1681132 0.4130939 0.8950371
-0.1869285 0.4333299 0.8816365
-0.2058648 0.4530595 0.867385
-0.224873 0.4722517 0.8522972
-0.2439054 0.4908777 0.8363906
-0.2629162 0.5089105 0.819686
-0.2818613 0.5263254 0.8022068
-0.3006984 0.5430997 0.783979
-0.319387 0.5592131 0.7650312
-0.3378884 0.5746473 0.7453938
-0.3561658 0.5893867 0.7250994
-0.3741845 0.6034179 0.7041823
-0.3919117 0.6167298 0.6826783
-0.4093166 0.6293136 0.6606242
-0.4263706 0.6411629 0.6380582
-0.443047 0.6522736 0.6150191
-0.4593215 0.6626437 0.5915463
-0.4751716 0.6722735 0.5676798
-0.4905771 0.6811652 0.5434594
-0.5055198 0.6893231 0.5189252
-0.5199838 0.6967534 0.494117
-0.5339549 0.703464 0.4690741
-0.5474212 0.7094647 0.4438354
-0.5603726 0.7147667 0.418439
-0.5728008 0.7193826 0.3929223
-0.5846996 0.7233265 0.3673215
-0.5960645 0.7266136 0.341672
-0.6068924 0.7292604 0.3160079
-0.6171821 0.7312839 0.290362
-0.6269338 0.7327026 0.2647658
-0.6361493 0.7335352 0.2392493
-0.6448315 0.7338012 0.2138413
-0.6529847 0.7335208 0.1885689
-0.6606145 0.7327142 0.1634578
-0.6677272 0.7314022 0.1385321
-0.6743305 0.7296058 0.1138145
-0.6804328 0.7273459 0.08932602
-0.6860433 0.7246437 0.06508625
-0.6911719 0.72152 0.04111329
-0.6958294 0.7179957 0.01742373
-0.7000269 0.7140915 -0.005967229
-0.7037761 0.7098278 -0.02904582
-0.7070892 0.7052246 -0.05179963
-0.7099785 0.7003016 -0.07421754
-0.7124568 0.6950781 -0.09628972
-0.7145372 0.6895729 -0.1180075
-0.7162328 0.6838044 -0.1393635
-0.7175568 0.6777903 -0.1603513
-0.7185227 0.6715479 -0.1809656
-0.7191437 0.665094 -0.2012021
-0.7194333 0.6584447 -0.2210574
-0.7194047 0.6516155 -0.2405289
-0.7190711 0.6446214 -0.2596152
-0.7184457 0.6374767 -0.2783151
-0.7175413 0.6301952 -0.2966286
-0.7163707 0.62279 -0.3145562
-0.7149465 0.6152737 -0.332099
-0.713281 0.6076583 -0.3492586
-0.7113864 0.5999551 -0.3660373
-0.7092745 0.5921749 -0.3824377
-0.7069568 0.5843281 -0.398463
-0.7044449 0.5764242 -0.4141166
-0.7017496 0.5684725 -0.4294025
-0.6988818 0.5604816 -0.4443249
-0.6958519 0.5524597 -0.4588882
-0.6926703 0.5444144 -0.4730971
-0.6893467 0.5363529 -0.4869567
-0.6858907 0.5282819 -0.5004719
-0.6823118 0.5202077 -0.5136483
-0.6786189 0.5121362 -0.5264912
-0.6748207 0.5040728 -0.5390061
-0.6709258 0.4960227 -0.5511988
-0.6669422 0.4879904 -0.563075
-0.6628779 0.4799804 -0.5746405
-0.6587404 0.4719967 -0.5859012
-0.6545372 0.4640429 -0.5968628
-0.6502753 0.4561225 -0.6075314
-0.6459615 0.4482385 -0.6179127
-0.6416024 0.4403937 -0.6280126
-0.6372043 0.4325906 -0.637837
-0.6327733 0.4248316 -0.6473917
-0.6283154 0.4171188 -0.6566824
-0.623836 0.4094538 -0.6657148
-0.6193407 0.4018384 -0.6744946
-0.6148347 0.394274 -0.6830273
-0.6103229 0.3867618 -0.6913185
-0.6058101 0.3793028 -0.6993736
-0.601301 0.371898 -0.707198
-0.5967999 0.3645481 -0.7147968
-0.5923112 0.3572537 -0.7221754
-0.5878389 0.3500151 -0.7293387
-0.5833868 0.3428327 -0.7362917
-0.5789588 0.3357068 -0.7430395
-0.5745584 0.3286373 -0.7495866
-0.5701891 0.3216243 -0.755938
-0.5658541 0.3146676 -0.762098
-0.5615567 0.307767 -0.7680713
-0.5572998 0.3009222 -0.7738622
-0.5530863 0.2941329 -0.7794751
-0.548919 0.2873984 -0.784914
-0.5448006 0.2807184 -0.7901832
-0.5407335 0.2740923 -0.7952865
-0.5367203 0.2675193 -0.8002279
-0.5327632 0.2609987 -0.8050112
-0.5288645 0.2545299 -0.80964
-0.5250263 0.248112 -0.8141178
-0.5212506 0.2417441 -0.8184483
-0.5175393 0.2354255 -0.8226347
-0.5138944 0.229155 -0.8266804
-0.5103176 0.2229319 -0.8305885
-0.5068106 0.2167551 -0.8343622
-0.503375 0.2106236 -0.8380043
-0.5000124 0.2045364 -0.8415179
-0.4967242 0.1984924 -0.8449058
-0.4935119 0.1924905 -0.8481706
-0.4903768 0.1865298 -0.851315
-0.4873202 0.1806089 -0.8543415
-0.4843433 0.1747269 -0.8572526
-0.4814472 0.1688826 -0.8600507
-0.4786332 0.1630749 -0.862738
-0.4759022 0.1573025 -0.8653167
-0.4732552 0.1515644 -0.867789
-0.4706933 0.1458593 -0.8701568
-0.4682173 0.1401862 -0.8724222
-0.465828 0.1345438 -0.8745869
-0.4635264 0.1289309 -0.8766528
-0.4613131 0.1233464 -0.8786216
-0.459189 0.1177891 -0.8804949
-0.4571547 0.1122577 -0.8822742
-0.4552108 0.1067511 -0.8839611
-0.4533581 0.1012682 -0.885557
-0.451597 0.09580762 -0.8870632
-0.4499281 0.09036831 -0.8884809
-0.4483519 0.08494903 -0.8898113
-0.446869 0.0795486 -0.8910556
-0.4454796 0.07416583 -0.8922148
-0.4441844 0.06879955 -0.8932899
-0.4429836 0.06344855 -0.8942817
-0.4418776 0.05811166 -0.8951912
-0.4408667 0.0527877 -0.896019
-0.4399513 0.04747549 -0.8967658
-0.4391315 0.04217384 -0.8974324
-0.4384076 0.03688159 -0.8980192
-0.4377798 0.03159754 -0.8985268
-0.4372483 0.02632054 -0.8989556
-0.4368132 0.0210494 -0.8993059
-0.4364747 0.01578295 -0.8995781
-0.4362328 0.01052001 -0.8997723
-0.4360877 0.00525942 -0.8998888
-0.4360393 9.350432e-11 -0.8999276
-0.4360877 -0.005259419 -0.8998888
-0.4362328 -0.01052001 -0.8997723
-0.4364747 -0.01578295 -0.8995781
-0.4368132 -0.0210494 -0.8993059
-0.4372483 -0.02632054 -0.8989556
-0.4377798 -0.03159754 -0.8985268
-0.4384076 -0.03688159 -0.8980192
-0.4391315 -0.04217384 -0.8974324
-0.4399513 -0.04747549 -0.8967658
-0.4408667 -0.0527877 -0.896019
-0.4418776 -0.05811166 -0.8951912
-0.4429836 -0.06344855 -0.8942817
-0.4441844 -0.06879954 -0.8932899
-0.4454796 -0.07416583 -0.8922148
-0.446869 -0.0795486 -0.8910556
-0.4483519 -0.08494903 -0.8898113
-0.4499281 -0.09036831 -0.8884809
-0.451597 -0.09580762 -0.8870632
-0.4533581 -0.1012682 -0.885557
-0.4552108 -0.1067511 -0.8839611
-0.4571547 -0.1122577 -0.8822742
-0.459189 -0.1177891 -0.8804949
-0.4613131 -0.1233464 -0.8786216
-0.4635264 -0.1289309 -0.8766528
-0.465828 -0.1345438 -0.8745869
-0.4682173 -0.1401862 -0.8724222
-0.4706933 -0.1458593 -0.8701568
-0.4732552 -0.1515644 -0.867789
-0.4759022 -0.1573025 -0.8653167
-0.4786332 -0.1630749 -0.862738
-0.4814472 -0.1688826 -0.8600507
-0.4843433 -0.1747269 -0.8572526
-0.4873202 -0.1806089 -0.8543415
-0.4903768 -0.1865298 -0.851315
-0.4935119 -0.1924905 -0.8481706
-0.4967242 -0.1984924 -0.8449058
-0.5000124 -0.2045364 -0.8415179
-0.503375 -0.2106236 -0.8380043
-0.5068106 -0.2167551 -0.8343622
-0.5103176 -0.2229319 -0.8305885
-0.5138944 -0.229155 -0.8266804
-0.5175393 -0.2354255 -0.8226347
-0.5212506 -0.2417441 -0.8184483
-0.5250263 -0.248112 -0.8141178
-0.5288645 -0.2545299 -0.80964
-0.5327632 -0.2609987 -0.8050112
-0.5367203 -0.2675193 -0.8002279
-0.5407335 -0.2740923 -0.7952865
-0.5448006 -0.2807184 -0.7901832
-0.548919 -0.2873984 -0.784914
-0.5530863 -0.2941329 -0.7794751